REMARK  Name = 
REMARK  6 active torsions:
REMARK  status: ('A' for Active; 'I' for Inactive)
REMARK    1  A    between atoms: C_1  and  C_2
REMARK    2  A    between atoms: C_5  and  C_7
REMARK    3  A    between atoms: C_12  and  C_14
REMARK    4  A    between atoms: C_14  and  N_15
REMARK    5  A    between atoms: C_14  and  C_16
REMARK    6  A    between atoms: C_16  and  C_17
REMARK                            x       y       z     vdW  Elec       q    Type
REMARK                         _______ _______ _______ _____ _____    ______ ____
ROOT
ATOM      1  C   UNL     1       5.446   1.814  -1.752  0.00  0.00    +0.000 C 
ATOM      2  C   UNL     1       6.974   1.681  -1.889  0.00  0.00    +0.000 C 
ATOM      3  C   UNL     1       7.425   3.007  -2.459  0.00  0.00    +0.000 C 
ATOM      4  C   UNL     1       6.427   4.004  -1.903  0.00  0.00    +0.000 C 
ATOM      5  N   UNL     1       5.312   3.233  -1.354  0.00  0.00    +0.000 N 
ATOM      6  C   UNL     1       4.136   3.838  -0.933  0.00  0.00    +0.000 C 
ATOM      7  O   UNL     1       3.139   3.169  -0.649  0.00  0.00    +0.000 OA
ENDROOT
BRANCH   1  12
ATOM      8  C   UNL     1       1.737   0.145   0.857  0.00  0.00    +0.000 C 
ATOM      9  C   UNL     1       3.081  -0.304   0.352  0.00  0.00    +0.000 C 
ATOM     10  O   UNL     1       3.487  -1.441   0.560  0.00  0.00    +0.000 OA
ATOM     11  N   UNL     1       3.731   0.691  -0.355  0.00  0.00    +0.000 N 
ATOM     12  C   UNL     1       4.968   0.574  -0.947  0.00  0.00    +0.000 C 
ATOM     13  O   UNL     1       5.570  -0.496  -1.051  0.00  0.00    +0.000 OA
ATOM     14  H   UNL     1       3.283   1.603  -0.403  0.00  0.00    +0.000 HD
ENDBRANCH   1  12
BRANCH   6  15
ATOM     15  C   UNL     1       4.081   5.401  -0.958  0.00  0.00    +0.000 C 
BRANCH  15  16
ATOM     16  N   UNL     1       3.379   5.786  -2.209  0.00  0.00    +0.000 NA
ATOM     17  H   UNL     1       2.448   5.361  -2.191  0.00  0.00    +0.000 HD
ATOM     18  H   UNL     1       3.852   5.361  -3.006  0.00  0.00    +0.000 HD
ENDBRANCH  15  16
BRANCH  15  19
ATOM     19  C   UNL     1       3.344   6.020   0.241  0.00  0.00    +0.000 C 
BRANCH  19  20
ATOM     20  C   UNL     1       4.048   5.813   1.562  0.00  0.00    +0.000 A 
ATOM     21  C   UNL     1       5.105   6.643   1.964  0.00  0.00    +0.000 A 
ATOM     22  C   UNL     1       5.729   6.447   3.198  0.00  0.00    +0.000 A 
ATOM     23  C   UNL     1       5.309   5.417   4.042  0.00  0.00    +0.000 A 
ATOM     24  C   UNL     1       4.256   4.593   3.653  0.00  0.00    +0.000 A 
ATOM     25  C   UNL     1       3.631   4.787   2.421  0.00  0.00    +0.000 A 
ENDBRANCH  19  20
ENDBRANCH  15  19
ENDBRANCH   6  15
TORSDOF 5
