MODEL 1
REMARK VINA RESULT:      -6.9      0.000      0.000
REMARK  Name = 
REMARK  6 active torsions:
REMARK  status: ('A' for Active; 'I' for Inactive)
REMARK    1  A    between atoms: C_1  and  C_2
REMARK    2  A    between atoms: C_5  and  C_7
REMARK    3  A    between atoms: C_12  and  C_14
REMARK    4  A    between atoms: C_14  and  N_15
REMARK    5  A    between atoms: C_14  and  C_16
REMARK    6  A    between atoms: C_16  and  C_17
REMARK                            x       y       z     vdW  Elec       q    Type
REMARK                         _______ _______ _______ _____ _____    ______ ____
ROOT
ATOM      1  C   UNL     1      10.066  40.706  31.283  0.00  0.00    +0.000 C 
ATOM      2  C   UNL     1       9.631  40.157  29.911  0.00  0.00    +0.000 C 
ATOM      3  C   UNL     1       8.857  41.289  29.273  0.00  0.00    +0.000 C 
ATOM      4  C   UNL     1       9.508  42.539  29.830  0.00  0.00    +0.000 C 
ATOM      5  N   UNL     1      10.346  42.122  30.954  0.00  0.00    +0.000 N 
ATOM      6  C   UNL     1      10.940  43.039  31.810  0.00  0.00    +0.000 C 
ATOM      7  O   UNL     1      11.485  42.678  32.856  0.00  0.00    +0.000 OA
ENDROOT
BRANCH   1  12
ATOM      8  C   UNL     1      13.601  37.660  30.026  0.00  0.00    +0.000 C 
ATOM      9  C   UNL     1      12.887  38.147  31.258  0.00  0.00    +0.000 C 
ATOM     10  O   UNL     1      13.218  37.764  32.373  0.00  0.00    +0.000 OA
ATOM     11  N   UNL     1      11.883  39.049  30.956  0.00  0.00    +0.000 N 
ATOM     12  C   UNL     1      11.067  39.674  31.871  0.00  0.00    +0.000 C 
ATOM     13  O   UNL     1      11.250  39.620  33.089  0.00  0.00    +0.000 OA
ATOM     14  H   UNL     1      11.696  39.233  29.973  0.00  0.00    +0.000 HD
ENDBRANCH   1  12
BRANCH   6  15
ATOM     15  C   UNL     1      10.778  44.556  31.464  0.00  0.00    +0.000 C 
BRANCH  15  16
ATOM     16  N   UNL     1      10.671  45.281  32.756  0.00  0.00    +0.000 NA
ATOM     17  H   UNL     1      11.497  45.052  33.315  0.00  0.00    +0.000 HD
ATOM     18  H   UNL     1       9.879  44.915  33.285  0.00  0.00    +0.000 HD
ENDBRANCH  15  16
BRANCH  15  19
ATOM     19  C   UNL     1      11.947  45.142  30.656  0.00  0.00    +0.000 C 
BRANCH  19  20
ATOM     20  C   UNL     1      11.542  45.686  29.306  0.00  0.00    +0.000 A 
ATOM     21  C   UNL     1      11.934  45.053  28.116  0.00  0.00    +0.000 A 
ATOM     22  C   UNL     1      11.532  45.561  26.879  0.00  0.00    +0.000 A 
ATOM     23  C   UNL     1      10.740  46.708  26.814  0.00  0.00    +0.000 A 
ATOM     24  C   UNL     1      10.341  47.338  27.990  0.00  0.00    +0.000 A 
ATOM     25  C   UNL     1      10.741  46.833  29.228  0.00  0.00    +0.000 A 
ENDBRANCH  19  20
ENDBRANCH  15  19
ENDBRANCH   6  15
TORSDOF 5
ENDMDL
MODEL 2
REMARK VINA RESULT:      -6.4      1.715      2.251
REMARK  Name = 
REMARK  6 active torsions:
REMARK  status: ('A' for Active; 'I' for Inactive)
REMARK    1  A    between atoms: C_1  and  C_2
REMARK    2  A    between atoms: C_5  and  C_7
REMARK    3  A    between atoms: C_12  and  C_14
REMARK    4  A    between atoms: C_14  and  N_15
REMARK    5  A    between atoms: C_14  and  C_16
REMARK    6  A    between atoms: C_16  and  C_17
REMARK                            x       y       z     vdW  Elec       q    Type
REMARK                         _______ _______ _______ _____ _____    ______ ____
ROOT
ATOM      1  C   UNL     1       9.356  40.485  30.900  0.00  0.00    +0.000 C 
ATOM      2  C   UNL     1       8.129  40.617  29.978  0.00  0.00    +0.000 C 
ATOM      3  C   UNL     1       7.194  41.549  30.715  0.00  0.00    +0.000 C 
ATOM      4  C   UNL     1       8.122  42.463  31.491  0.00  0.00    +0.000 C 
ATOM      5  N   UNL     1       9.452  41.854  31.454  0.00  0.00    +0.000 N 
ATOM      6  C   UNL     1      10.502  42.333  32.224  0.00  0.00    +0.000 C 
ATOM      7  O   UNL     1      11.559  41.704  32.326  0.00  0.00    +0.000 OA
ENDROOT
BRANCH   1  12
ATOM      8  C   UNL     1      13.369  37.839  31.387  0.00  0.00    +0.000 C 
ATOM      9  C   UNL     1      12.462  38.363  30.307  0.00  0.00    +0.000 C 
ATOM     10  O   UNL     1      12.655  38.085  29.130  0.00  0.00    +0.000 OA
ATOM     11  N   UNL     1      11.434  39.133  30.819  0.00  0.00    +0.000 N 
ATOM     12  C   UNL     1      10.442  39.736  30.079  0.00  0.00    +0.000 C 
ATOM     13  O   UNL     1      10.266  39.520  28.879  0.00  0.00    +0.000 OA
ATOM     14  H   UNL     1      11.434  39.313  31.820  0.00  0.00    +0.000 HD
ENDBRANCH   1  12
BRANCH   6  15
ATOM     15  C   UNL     1      10.250  43.631  33.059  0.00  0.00    +0.000 C 
BRANCH  15  16
ATOM     16  N   UNL     1      10.484  43.278  34.483  0.00  0.00    +0.000 NA
ATOM     17  H   UNL     1       9.624  43.476  35.002  0.00  0.00    +0.000 HD
ATOM     18  H   UNL     1      11.185  43.906  34.875  0.00  0.00    +0.000 HD
ENDBRANCH  15  16
BRANCH  15  19
ATOM     19  C   UNL     1      11.163  44.808  32.678  0.00  0.00    +0.000 C 
BRANCH  19  20
ATOM     20  C   UNL     1      11.007  45.261  31.244  0.00  0.00    +0.000 A 
ATOM     21  C   UNL     1       9.821  45.859  30.792  0.00  0.00    +0.000 A 
ATOM     22  C   UNL     1       9.705  46.288  29.468  0.00  0.00    +0.000 A 
ATOM     23  C   UNL     1      10.768  46.120  28.579  0.00  0.00    +0.000 A 
ATOM     24  C   UNL     1      11.951  45.533  29.022  0.00  0.00    +0.000 A 
ATOM     25  C   UNL     1      12.069  45.104  30.344  0.00  0.00    +0.000 A 
ENDBRANCH  19  20
ENDBRANCH  15  19
ENDBRANCH   6  15
TORSDOF 5
ENDMDL
MODEL 3
REMARK VINA RESULT:      -4.8      2.498      4.146
REMARK  Name = 
REMARK  6 active torsions:
REMARK  status: ('A' for Active; 'I' for Inactive)
REMARK    1  A    between atoms: C_1  and  C_2
REMARK    2  A    between atoms: C_5  and  C_7
REMARK    3  A    between atoms: C_12  and  C_14
REMARK    4  A    between atoms: C_14  and  N_15
REMARK    5  A    between atoms: C_14  and  C_16
REMARK    6  A    between atoms: C_16  and  C_17
REMARK                            x       y       z     vdW  Elec       q    Type
REMARK                         _______ _______ _______ _____ _____    ______ ____
ROOT
ATOM      1  C   UNL     1       8.946  41.407  29.961  0.00  0.00    +0.000 C 
ATOM      2  C   UNL     1       7.585  41.370  29.243  0.00  0.00    +0.000 C 
ATOM      3  C   UNL     1       6.939  42.697  29.576  0.00  0.00    +0.000 C 
ATOM      4  C   UNL     1       8.111  43.649  29.720  0.00  0.00    +0.000 C 
ATOM      5  N   UNL     1       9.320  42.830  29.803  0.00  0.00    +0.000 N 
ATOM      6  C   UNL     1      10.555  43.374  30.127  0.00  0.00    +0.000 C 
ATOM      7  O   UNL     1      11.525  42.653  30.377  0.00  0.00    +0.000 OA
ENDROOT
BRANCH   1  12
ATOM      8  C   UNL     1      12.610  38.478  31.120  0.00  0.00    +0.000 C 
ATOM      9  C   UNL     1      11.579  38.656  30.039  0.00  0.00    +0.000 C 
ATOM     10  O   UNL     1      11.497  37.865  29.107  0.00  0.00    +0.000 OA
ATOM     11  N   UNL     1      10.780  39.763  30.259  0.00  0.00    +0.000 N 
ATOM     12  C   UNL     1       9.744  40.175  29.452  0.00  0.00    +0.000 C 
ATOM     13  O   UNL     1       9.307  39.503  28.516  0.00  0.00    +0.000 OA
ATOM     14  H   UNL     1      11.002  40.352  31.058  0.00  0.00    +0.000 HD
ENDBRANCH   1  12
BRANCH   6  15
ATOM     15  C   UNL     1      10.638  44.927  30.293  0.00  0.00    +0.000 C 
BRANCH  15  16
ATOM     16  N   UNL     1      10.319  45.517  28.968  0.00  0.00    +0.000 NA
ATOM     17  H   UNL     1      10.583  46.506  28.992  0.00  0.00    +0.000 HD
ATOM     18  H   UNL     1       9.309  45.513  28.830  0.00  0.00    +0.000 HD
ENDBRANCH  15  16
BRANCH  15  19
ATOM     19  C   UNL     1       9.669  45.497  31.342  0.00  0.00    +0.000 C 
BRANCH  19  20
ATOM     20  C   UNL     1      10.030  45.136  32.764  0.00  0.00    +0.000 A 
ATOM     21  C   UNL     1      11.094  45.762  33.429  0.00  0.00    +0.000 A 
ATOM     22  C   UNL     1      11.398  45.429  34.750  0.00  0.00    +0.000 A 
ATOM     23  C   UNL     1      10.647  44.461  35.421  0.00  0.00    +0.000 A 
ATOM     24  C   UNL     1       9.584  43.840  34.770  0.00  0.00    +0.000 A 
ATOM     25  C   UNL     1       9.279  44.172  33.450  0.00  0.00    +0.000 A 
ENDBRANCH  19  20
ENDBRANCH  15  19
ENDBRANCH   6  15
TORSDOF 5
ENDMDL
MODEL 4
REMARK VINA RESULT:      -4.7      3.395      5.489
REMARK  Name = 
REMARK  6 active torsions:
REMARK  status: ('A' for Active; 'I' for Inactive)
REMARK    1  A    between atoms: C_1  and  C_2
REMARK    2  A    between atoms: C_5  and  C_7
REMARK    3  A    between atoms: C_12  and  C_14
REMARK    4  A    between atoms: C_14  and  N_15
REMARK    5  A    between atoms: C_14  and  C_16
REMARK    6  A    between atoms: C_16  and  C_17
REMARK                            x       y       z     vdW  Elec       q    Type
REMARK                         _______ _______ _______ _____ _____    ______ ____
ROOT
ATOM      1  C   UNL     1       9.567  40.358  30.959  0.00  0.00    +0.000 C 
ATOM      2  C   UNL     1       8.440  40.363  29.909  0.00  0.00    +0.000 C 
ATOM      3  C   UNL     1       7.346  41.206  30.525  0.00  0.00    +0.000 C 
ATOM      4  C   UNL     1       8.093  42.211  31.379  0.00  0.00    +0.000 C 
ATOM      5  N   UNL     1       9.471  41.734  31.495  0.00  0.00    +0.000 N 
ATOM      6  C   UNL     1      10.381  42.319  32.365  0.00  0.00    +0.000 C 
ATOM      7  O   UNL     1      11.475  41.796  32.592  0.00  0.00    +0.000 OA
ENDROOT
BRANCH   1  12
ATOM      8  C   UNL     1      13.520  37.738  31.886  0.00  0.00    +0.000 C 
ATOM      9  C   UNL     1      12.796  38.353  30.719  0.00  0.00    +0.000 C 
ATOM     10  O   UNL     1      13.199  38.198  29.573  0.00  0.00    +0.000 OA
ATOM     11  N   UNL     1      11.671  39.053  31.114  0.00  0.00    +0.000 N 
ATOM     12  C   UNL     1      10.803  39.712  30.274  0.00  0.00    +0.000 C 
ATOM     13  O   UNL     1      10.844  39.614  29.046  0.00  0.00    +0.000 OA
ATOM     14  H   UNL     1      11.492  39.131  32.113  0.00  0.00    +0.000 HD
ENDBRANCH   1  12
BRANCH   6  15
ATOM     15  C   UNL     1       9.916  43.593  33.145  0.00  0.00    +0.000 C 
BRANCH  15  16
ATOM     16  N   UNL     1      10.100  44.747  32.229  0.00  0.00    +0.000 NA
ATOM     17  H   UNL     1       9.205  45.239  32.159  0.00  0.00    +0.000 HD
ATOM     18  H   UNL     1      10.291  44.405  31.288  0.00  0.00    +0.000 HD
ENDBRANCH  15  16
BRANCH  15  19
ATOM     19  C   UNL     1       8.449  43.545  33.602  0.00  0.00    +0.000 C 
BRANCH  19  20
ATOM     20  C   UNL     1       8.261  42.964  34.985  0.00  0.00    +0.000 A 
ATOM     21  C   UNL     1       8.505  43.727  36.137  0.00  0.00    +0.000 A 
ATOM     22  C   UNL     1       8.305  43.177  37.405  0.00  0.00    +0.000 A 
ATOM     23  C   UNL     1       7.866  41.859  37.538  0.00  0.00    +0.000 A 
ATOM     24  C   UNL     1       7.615  41.097  36.400  0.00  0.00    +0.000 A 
ATOM     25  C   UNL     1       7.813  41.644  35.132  0.00  0.00    +0.000 A 
ENDBRANCH  19  20
ENDBRANCH  15  19
ENDBRANCH   6  15
TORSDOF 5
ENDMDL
MODEL 5
REMARK VINA RESULT:      -4.6      3.354      4.648
REMARK  Name = 
REMARK  6 active torsions:
REMARK  status: ('A' for Active; 'I' for Inactive)
REMARK    1  A    between atoms: C_1  and  C_2
REMARK    2  A    between atoms: C_5  and  C_7
REMARK    3  A    between atoms: C_12  and  C_14
REMARK    4  A    between atoms: C_14  and  N_15
REMARK    5  A    between atoms: C_14  and  C_16
REMARK    6  A    between atoms: C_16  and  C_17
REMARK                            x       y       z     vdW  Elec       q    Type
REMARK                         _______ _______ _______ _____ _____    ______ ____
ROOT
ATOM      1  C   UNL     1       6.629  41.692  31.033  0.00  0.00    +0.000 C 
ATOM      2  C   UNL     1       5.566  42.798  31.160  0.00  0.00    +0.000 C 
ATOM      3  C   UNL     1       5.790  43.390  32.534  0.00  0.00    +0.000 C 
ATOM      4  C   UNL     1       7.280  43.229  32.764  0.00  0.00    +0.000 C 
ATOM      5  N   UNL     1       7.774  42.305  31.742  0.00  0.00    +0.000 N 
ATOM      6  C   UNL     1       9.063  41.791  31.777  0.00  0.00    +0.000 C 
ATOM      7  O   UNL     1       9.406  40.876  31.024  0.00  0.00    +0.000 OA
ENDROOT
BRANCH   1  12
ATOM      8  C   UNL     1       7.902  38.022  28.159  0.00  0.00    +0.000 C 
ATOM      9  C   UNL     1       7.206  39.353  28.083  0.00  0.00    +0.000 C 
ATOM     10  O   UNL     1       6.724  39.756  27.031  0.00  0.00    +0.000 OA
ATOM     11  N   UNL     1       7.175  39.996  29.307  0.00  0.00    +0.000 N 
ATOM     12  C   UNL     1       6.598  41.221  29.553  0.00  0.00    +0.000 C 
ATOM     13  O   UNL     1       5.894  41.814  28.734  0.00  0.00    +0.000 OA
ATOM     14  H   UNL     1       7.662  39.553  30.082  0.00  0.00    +0.000 HD
ENDBRANCH   1  12
BRANCH   6  15
ATOM     15  C   UNL     1      10.021  42.324  32.892  0.00  0.00    +0.000 C 
BRANCH  15  16
ATOM     16  N   UNL     1      10.282  41.188  33.813  0.00  0.00    +0.000 NA
ATOM     17  H   UNL     1      11.008  41.478  34.473  0.00  0.00    +0.000 HD
ATOM     18  H   UNL     1      10.691  40.415  33.288  0.00  0.00    +0.000 HD
ENDBRANCH  15  16
BRANCH  15  19
ATOM     19  C   UNL     1      11.362  42.857  32.362  0.00  0.00    +0.000 C 
BRANCH  19  20
ATOM     20  C   UNL     1      11.256  44.199  31.676  0.00  0.00    +0.000 A 
ATOM     21  C   UNL     1      10.817  45.339  32.365  0.00  0.00    +0.000 A 
ATOM     22  C   UNL     1      10.746  46.574  31.718  0.00  0.00    +0.000 A 
ATOM     23  C   UNL     1      11.106  46.684  30.373  0.00  0.00    +0.000 A 
ATOM     24  C   UNL     1      11.549  45.559  29.683  0.00  0.00    +0.000 A 
ATOM     25  C   UNL     1      11.622  44.324  30.328  0.00  0.00    +0.000 A 
ENDBRANCH  19  20
ENDBRANCH  15  19
ENDBRANCH   6  15
TORSDOF 5
ENDMDL
MODEL 6
REMARK VINA RESULT:      -4.4      3.036      4.573
REMARK  Name = 
REMARK  6 active torsions:
REMARK  status: ('A' for Active; 'I' for Inactive)
REMARK    1  A    between atoms: C_1  and  C_2
REMARK    2  A    between atoms: C_5  and  C_7
REMARK    3  A    between atoms: C_12  and  C_14
REMARK    4  A    between atoms: C_14  and  N_15
REMARK    5  A    between atoms: C_14  and  C_16
REMARK    6  A    between atoms: C_16  and  C_17
REMARK                            x       y       z     vdW  Elec       q    Type
REMARK                         _______ _______ _______ _____ _____    ______ ____
ROOT
ATOM      1  C   UNL     1       8.735  41.196  29.808  0.00  0.00    +0.000 C 
ATOM      2  C   UNL     1       7.563  41.510  28.859  0.00  0.00    +0.000 C 
ATOM      3  C   UNL     1       7.279  42.980  29.072  0.00  0.00    +0.000 C 
ATOM      4  C   UNL     1       8.632  43.568  29.423  0.00  0.00    +0.000 C 
ATOM      5  N   UNL     1       9.523  42.446  29.720  0.00  0.00    +0.000 N 
ATOM      6  C   UNL     1      10.787  42.634  30.260  0.00  0.00    +0.000 C 
ATOM      7  O   UNL     1      11.452  41.682  30.678  0.00  0.00    +0.000 OA
ENDROOT
BRANCH   1  12
ATOM      8  C   UNL     1       7.271  37.056  27.793  0.00  0.00    +0.000 C 
ATOM      9  C   UNL     1       8.506  37.666  28.398  0.00  0.00    +0.000 C 
ATOM     10  O   UNL     1       9.564  37.050  28.430  0.00  0.00    +0.000 OA
ATOM     11  N   UNL     1       8.280  38.950  28.858  0.00  0.00    +0.000 N 
ATOM     12  C   UNL     1       9.220  39.765  29.448  0.00  0.00    +0.000 C 
ATOM     13  O   UNL     1      10.421  39.495  29.486  0.00  0.00    +0.000 OA
ATOM     14  H   UNL     1       7.330  39.310  28.802  0.00  0.00    +0.000 HD
ENDBRANCH   1  12
BRANCH   6  15
ATOM     15  C   UNL     1      11.283  44.106  30.438  0.00  0.00    +0.000 C 
BRANCH  15  16
ATOM     16  N   UNL     1      11.409  44.685  29.076  0.00  0.00    +0.000 NA
ATOM     17  H   UNL     1      10.812  44.142  28.447  0.00  0.00    +0.000 HD
ATOM     18  H   UNL     1      12.359  44.541  28.735  0.00  0.00    +0.000 HD
ENDBRANCH  15  16
BRANCH  15  19
ATOM     19  C   UNL     1      10.338  44.988  31.272  0.00  0.00    +0.000 C 
BRANCH  19  20
ATOM     20  C   UNL     1      10.736  45.102  32.725  0.00  0.00    +0.000 A 
ATOM     21  C   UNL     1       9.996  45.884  33.625  0.00  0.00    +0.000 A 
ATOM     22  C   UNL     1      10.368  45.960  34.969  0.00  0.00    +0.000 A 
ATOM     23  C   UNL     1      11.487  45.262  35.428  0.00  0.00    +0.000 A 
ATOM     24  C   UNL     1      12.223  44.479  34.543  0.00  0.00    +0.000 A 
ATOM     25  C   UNL     1      11.852  44.401  33.200  0.00  0.00    +0.000 A 
ENDBRANCH  19  20
ENDBRANCH  15  19
ENDBRANCH   6  15
TORSDOF 5
ENDMDL
MODEL 7
REMARK VINA RESULT:      -4.2      3.800      5.354
REMARK  Name = 
REMARK  6 active torsions:
REMARK  status: ('A' for Active; 'I' for Inactive)
REMARK    1  A    between atoms: C_1  and  C_2
REMARK    2  A    between atoms: C_5  and  C_7
REMARK    3  A    between atoms: C_12  and  C_14
REMARK    4  A    between atoms: C_14  and  N_15
REMARK    5  A    between atoms: C_14  and  C_16
REMARK    6  A    between atoms: C_16  and  C_17
REMARK                            x       y       z     vdW  Elec       q    Type
REMARK                         _______ _______ _______ _____ _____    ______ ____
ROOT
ATOM      1  C   UNL     1       5.849  41.121  31.138  0.00  0.00    +0.000 C 
ATOM      2  C   UNL     1       4.960  42.333  31.473  0.00  0.00    +0.000 C 
ATOM      3  C   UNL     1       5.691  43.049  32.587  0.00  0.00    +0.000 C 
ATOM      4  C   UNL     1       7.155  42.769  32.305  0.00  0.00    +0.000 C 
ATOM      5  N   UNL     1       7.202  41.695  31.313  0.00  0.00    +0.000 N 
ATOM      6  C   UNL     1       8.389  41.064  30.968  0.00  0.00    +0.000 C 
ATOM      7  O   UNL     1       8.393  40.043  30.277  0.00  0.00    +0.000 OA
ENDROOT
BRANCH   1  12
ATOM      8  C   UNL     1       6.322  41.150  26.330  0.00  0.00    +0.000 C 
ATOM      9  C   UNL     1       5.514  40.470  27.401  0.00  0.00    +0.000 C 
ATOM     10  O   UNL     1       4.700  39.598  27.121  0.00  0.00    +0.000 OA
ATOM     11  N   UNL     1       5.829  40.934  28.665  0.00  0.00    +0.000 N 
ATOM     12  C   UNL     1       5.266  40.494  29.842  0.00  0.00    +0.000 C 
ATOM     13  O   UNL     1       4.526  39.512  29.912  0.00  0.00    +0.000 OA
ATOM     14  H   UNL     1       6.497  41.698  28.732  0.00  0.00    +0.000 HD
ENDBRANCH   1  12
BRANCH   6  15
ATOM     15  C   UNL     1       9.709  41.621  31.596  0.00  0.00    +0.000 C 
BRANCH  15  16
ATOM     16  N   UNL     1      10.327  40.506  32.357  0.00  0.00    +0.000 NA
ATOM     17  H   UNL     1      10.504  40.835  33.310  0.00  0.00    +0.000 HD
ATOM     18  H   UNL     1      11.247  40.300  31.970  0.00  0.00    +0.000 HD
ENDBRANCH  15  16
BRANCH  15  19
ATOM     19  C   UNL     1      10.721  42.142  30.562  0.00  0.00    +0.000 C 
BRANCH  19  20
ATOM     20  C   UNL     1      10.970  43.630  30.649  0.00  0.00    +0.000 A 
ATOM     21  C   UNL     1      11.721  44.303  29.675  0.00  0.00    +0.000 A 
ATOM     22  C   UNL     1      11.922  45.683  29.763  0.00  0.00    +0.000 A 
ATOM     23  C   UNL     1      11.381  46.405  30.829  0.00  0.00    +0.000 A 
ATOM     24  C   UNL     1      10.628  45.745  31.797  0.00  0.00    +0.000 A 
ATOM     25  C   UNL     1      10.426  44.367  31.710  0.00  0.00    +0.000 A 
ENDBRANCH  19  20
ENDBRANCH  15  19
ENDBRANCH   6  15
TORSDOF 5
ENDMDL
MODEL 8
REMARK VINA RESULT:      -4.1      3.715      5.465
REMARK  Name = 
REMARK  6 active torsions:
REMARK  status: ('A' for Active; 'I' for Inactive)
REMARK    1  A    between atoms: C_1  and  C_2
REMARK    2  A    between atoms: C_5  and  C_7
REMARK    3  A    between atoms: C_12  and  C_14
REMARK    4  A    between atoms: C_14  and  N_15
REMARK    5  A    between atoms: C_14  and  C_16
REMARK    6  A    between atoms: C_16  and  C_17
REMARK                            x       y       z     vdW  Elec       q    Type
REMARK                         _______ _______ _______ _____ _____    ______ ____
ROOT
ATOM      1  C   UNL     1       9.360  40.243  30.413  0.00  0.00    +0.000 C 
ATOM      2  C   UNL     1       8.894  41.388  29.495  0.00  0.00    +0.000 C 
ATOM      3  C   UNL     1       7.705  41.992  30.208  0.00  0.00    +0.000 C 
ATOM      4  C   UNL     1       8.012  41.781  31.678  0.00  0.00    +0.000 C 
ATOM      5  N   UNL     1       9.117  40.826  31.752  0.00  0.00    +0.000 N 
ATOM      6  C   UNL     1       9.527  40.267  32.954  0.00  0.00    +0.000 C 
ATOM      7  O   UNL     1      10.329  39.329  32.983  0.00  0.00    +0.000 OA
ENDROOT
BRANCH   1  12
ATOM      8  C   UNL     1      13.232  37.578  31.533  0.00  0.00    +0.000 C 
ATOM      9  C   UNL     1      12.679  38.375  30.383  0.00  0.00    +0.000 C 
ATOM     10  O   UNL     1      13.270  38.433  29.312  0.00  0.00    +0.000 OA
ATOM     11  N   UNL     1      11.472  38.972  30.696  0.00  0.00    +0.000 N 
ATOM     12  C   UNL     1      10.721  39.752  29.847  0.00  0.00    +0.000 C 
ATOM     13  O   UNL     1      10.966  39.873  28.645  0.00  0.00    +0.000 OA
ATOM     14  H   UNL     1      11.129  38.869  31.649  0.00  0.00    +0.000 HD
ENDBRANCH   1  12
BRANCH   6  15
ATOM     15  C   UNL     1       8.837  40.781  34.260  0.00  0.00    +0.000 C 
BRANCH  15  16
ATOM     16  N   UNL     1       8.816  39.641  35.212  0.00  0.00    +0.000 NA
ATOM     17  H   UNL     1       7.840  39.459  35.463  0.00  0.00    +0.000 HD
ATOM     18  H   UNL     1       9.269  39.919  36.082  0.00  0.00    +0.000 HD
ENDBRANCH  15  16
BRANCH  15  19
ATOM     19  C   UNL     1       9.555  41.970  34.920  0.00  0.00    +0.000 C 
BRANCH  19  20
ATOM     20  C   UNL     1       8.621  43.062  35.387  0.00  0.00    +0.000 A 
ATOM     21  C   UNL     1       8.678  43.562  36.696  0.00  0.00    +0.000 A 
ATOM     22  C   UNL     1       7.819  44.585  37.102  0.00  0.00    +0.000 A 
ATOM     23  C   UNL     1       6.889  45.118  36.207  0.00  0.00    +0.000 A 
ATOM     24  C   UNL     1       6.830  44.633  34.903  0.00  0.00    +0.000 A 
ATOM     25  C   UNL     1       7.688  43.610  34.496  0.00  0.00    +0.000 A 
ENDBRANCH  19  20
ENDBRANCH  15  19
ENDBRANCH   6  15
TORSDOF 5
ENDMDL
MODEL 9
REMARK VINA RESULT:      -3.9      4.499      6.111
REMARK  Name = 
REMARK  6 active torsions:
REMARK  status: ('A' for Active; 'I' for Inactive)
REMARK    1  A    between atoms: C_1  and  C_2
REMARK    2  A    between atoms: C_5  and  C_7
REMARK    3  A    between atoms: C_12  and  C_14
REMARK    4  A    between atoms: C_14  and  N_15
REMARK    5  A    between atoms: C_14  and  C_16
REMARK    6  A    between atoms: C_16  and  C_17
REMARK                            x       y       z     vdW  Elec       q    Type
REMARK                         _______ _______ _______ _____ _____    ______ ____
ROOT
ATOM      1  C   UNL     1       5.988  42.317  30.956  0.00  0.00    +0.000 C 
ATOM      2  C   UNL     1       5.023  43.458  30.585  0.00  0.00    +0.000 C 
ATOM      3  C   UNL     1       4.268  43.753  31.861  0.00  0.00    +0.000 C 
ATOM      4  C   UNL     1       5.263  43.433  32.959  0.00  0.00    +0.000 C 
ATOM      5  N   UNL     1       6.359  42.689  32.340  0.00  0.00    +0.000 N 
ATOM      6  C   UNL     1       7.352  42.077  33.093  0.00  0.00    +0.000 C 
ATOM      7  O   UNL     1       8.160  41.301  32.577  0.00  0.00    +0.000 OA
ENDROOT
BRANCH   1  12
ATOM      8  C   UNL     1       8.792  39.071  28.731  0.00  0.00    +0.000 C 
ATOM      9  C   UNL     1       8.353  40.503  28.586  0.00  0.00    +0.000 C 
ATOM     10  O   UNL     1       8.713  41.180  27.631  0.00  0.00    +0.000 OA
ATOM     11  N   UNL     1       7.520  40.899  29.616  0.00  0.00    +0.000 N 
ATOM     12  C   UNL     1       6.951  42.145  29.749  0.00  0.00    +0.000 C 
ATOM     13  O   UNL     1       6.992  43.006  28.869  0.00  0.00    +0.000 OA
ATOM     14  H   UNL     1       7.350  40.234  30.366  0.00  0.00    +0.000 HD
ENDBRANCH   1  12
BRANCH   6  15
ATOM     15  C   UNL     1       7.325  42.306  34.640  0.00  0.00    +0.000 C 
BRANCH  15  16
ATOM     16  N   UNL     1       6.459  41.246  35.216  0.00  0.00    +0.000 NA
ATOM     17  H   UNL     1       5.968  40.787  34.445  0.00  0.00    +0.000 HD
ATOM     18  H   UNL     1       5.727  41.678  35.780  0.00  0.00    +0.000 HD
ENDBRANCH  15  16
BRANCH  15  19
ATOM     19  C   UNL     1       8.709  42.238  35.306  0.00  0.00    +0.000 C 
BRANCH  19  20
ATOM     20  C   UNL     1       9.522  43.503  35.152  0.00  0.00    +0.000 A 
ATOM     21  C   UNL     1       9.339  44.597  36.010  0.00  0.00    +0.000 A 
ATOM     22  C   UNL     1      10.115  45.750  35.863  0.00  0.00    +0.000 A 
ATOM     23  C   UNL     1      11.078  45.824  34.855  0.00  0.00    +0.000 A 
ATOM     24  C   UNL     1      11.270  44.740  34.003  0.00  0.00    +0.000 A 
ATOM     25  C   UNL     1      10.496  43.588  34.148  0.00  0.00    +0.000 A 
ENDBRANCH  19  20
ENDBRANCH  15  19
ENDBRANCH   6  15
TORSDOF 5
ENDMDL
