REMARK  Name = 
REMARK  3 active torsions:
REMARK  status: ('A' for Active; 'I' for Inactive)
REMARK    1  A    between atoms: C_8  and  C_9
REMARK    2  A    between atoms: C_9  and  C_10
REMARK    3  A    between atoms: C_10  and  C_11
REMARK                            x       y       z     vdW  Elec       q    Type
REMARK                         _______ _______ _______ _____ _____    ______ ____
ROOT
ATOM      1  C   UNL     1      -6.487   0.528   0.080  0.00  0.00    +0.000 A 
ATOM      2  C   UNL     1      -7.503  -0.368   0.446  0.00  0.00    +0.000 A 
ATOM      3  C   UNL     1      -8.824   0.123   0.705  0.00  0.00    +0.000 A 
ATOM      4  C   UNL     1      -9.121   1.453   0.412  0.00  0.00    +0.000 A 
ATOM      5  C   UNL     1      -8.251   2.043  -0.457  0.00  0.00    +0.000 A 
ATOM      6  C   UNL     1      -6.903   1.796  -0.334  0.00  0.00    +0.000 A 
ATOM      7  C   UNL     1      -8.835   2.400  -1.800  0.00  0.00    +0.000 C 
ATOM      8  N   UNL     1      -8.672   3.798  -2.032  0.00  0.00    +0.000 N 
ATOM      9  C   UNL     1      -9.703   4.484  -1.426  0.00  0.00    +0.000 C 
ATOM     10  O   UNL     1     -10.738   4.757  -2.015  0.00  0.00    +0.000 OA
ATOM     11  C   UNL     1      -9.489   4.695  -0.021  0.00  0.00    +0.000 A 
ATOM     12  C   UNL     1      -8.803   5.753   0.547  0.00  0.00    +0.000 A 
ATOM     13  C   UNL     1      -9.055   5.708   1.928  0.00  0.00    +0.000 A 
ATOM     14  C   UNL     1      -9.857   4.606   2.163  0.00  0.00    +0.000 A 
ATOM     15  N   UNL     1      -9.927   3.843   1.004  0.00  0.00    +0.000 N 
ATOM     16  C   UNL     1     -10.148   2.405   0.998  0.00  0.00    +0.000 C 
ATOM     17  O   UNL     1     -11.070   1.972   1.681  0.00  0.00    +0.000 OA
ATOM     18  H   UNL     1      -7.755   4.101  -1.732  0.00  0.00    +0.000 HD
ENDROOT
BRANCH   1  19
ATOM     19  C   UNL     1      -4.985   0.406   0.111  0.00  0.00    +0.000 C 
BRANCH  19  20
ATOM     20  C   UNL     1      -4.165  -0.878   0.031  0.00  0.00    +0.000 C 
BRANCH  20  28
ATOM     21  O   UNL     1       2.008   1.169  -0.722  0.00  0.00    +0.000 OA
ATOM     22  C   UNL     1       1.415   0.845   0.307  0.00  0.00    +0.000 C 
ATOM     23  C   UNL     1       2.108   0.767   1.641  0.00  0.00    +0.000 C 
ATOM     24  C   UNL     1       1.154   1.153   2.758  0.00  0.00    +0.000 C 
ATOM     25  C   UNL     1      -0.076   0.228   2.778  0.00  0.00    +0.000 C 
ATOM     26  C   UNL     1      -0.710   0.122   1.431  0.00  0.00    +0.000 A 
ATOM     27  C   UNL     1      -2.050  -0.346   1.337  0.00  0.00    +0.000 A 
ATOM     28  C   UNL     1      -2.689  -0.482   0.100  0.00  0.00    +0.000 A 
ATOM     29  C   UNL     1      -1.986  -0.120  -1.069  0.00  0.00    +0.000 A 
ATOM     30  C   UNL     1      -0.657   0.324  -0.993  0.00  0.00    +0.000 A 
ATOM     31  C   UNL     1      -0.015   0.431   0.244  0.00  0.00    +0.000 A 
ENDBRANCH  20  28
ENDBRANCH  19  20
ENDBRANCH   1  19
TORSDOF 3
