REMARK  Name = 
REMARK  6 active torsions:
REMARK  status: ('A' for Active; 'I' for Inactive)
REMARK    1  A    between atoms: C_1  and  N_2
REMARK    2  A    between atoms: N_2  and  C_3
REMARK    3  A    between atoms: N_2  and  C_4
REMARK    4  A    between atoms: C_4  and  C_5
REMARK    5  A    between atoms: C_9  and  C_10
REMARK    6  A    between atoms: C_13  and  C_14
REMARK                            x       y       z     vdW  Elec       q    Type
REMARK                         _______ _______ _______ _____ _____    ______ ____
ROOT
ATOM      1  C   UNL     1       4.440  -0.944   1.005  0.00  0.00    +0.000 A 
ATOM      2  C   UNL     1       5.107  -1.337   2.161  0.00  0.00    +0.000 A 
ATOM      3  C   UNL     1       6.512  -1.353   2.214  0.00  0.00    +0.000 A 
ATOM      4  C   UNL     1       7.275  -0.944   1.091  0.00  0.00    +0.000 A 
ATOM      5  C   UNL     1       6.621  -0.499  -0.086  0.00  0.00    +0.000 A 
ATOM      6  C   UNL     1       5.206  -0.565  -0.100  0.00  0.00    +0.000 A 
ATOM      7  N   UNL     1       8.701  -1.088   1.147  0.00  0.00    +0.000 N 
ATOM      8  C   UNL     1       9.627  -0.189   0.633  0.00  0.00    +0.000 A 
ATOM      9  C   UNL     1      10.878  -0.755   0.675  0.00  0.00    +0.000 A 
ATOM     10  C   UNL     1      10.739  -2.000   1.315  0.00  0.00    +0.000 A 
ATOM     11  C   UNL     1       9.412  -2.151   1.696  0.00  0.00    +0.000 A 
ATOM     12  C   UNL     1       8.885  -3.294   2.406  0.00  0.00    +0.000 C 
ATOM     13  O   UNL     1       9.389  -4.414   2.366  0.00  0.00    +0.000 OA
ATOM     14  N   UNL     1       7.801  -3.103   3.216  0.00  0.00    +0.000 N 
ATOM     15  C   UNL     1       7.180  -1.837   3.469  0.00  0.00    +0.000 C 
ATOM     16  H   UNL     1       7.476  -3.937   3.688  0.00  0.00    +0.000 HD
ENDROOT
BRANCH   5  17
ATOM     17  C   UNL     1       7.275  -0.180  -1.375  0.00  0.00    +0.000 A 
ATOM     18  N   UNL     1       8.178  -1.101  -1.766  0.00  0.00    +0.000 NA
ATOM     19  C   UNL     1       8.731  -0.975  -2.983  0.00  0.00    +0.000 A 
ATOM     20  C   UNL     1       8.318  -0.061  -3.952  0.00  0.00    +0.000 A 
ATOM     21  C   UNL     1       7.299   0.837  -3.573  0.00  0.00    +0.000 A 
ATOM     22  C   UNL     1       6.885   0.871  -2.219  0.00  0.00    +0.000 A 
ATOM     23  C   UNL     1       6.082   2.048  -1.695  0.00  0.00    +0.000 C 
ATOM     24  O   UNL     1       5.746   3.028  -2.685  0.00  0.00    +0.000 OA
ATOM     25  C   UNL     1       5.345   2.401  -3.897  0.00  0.00    +0.000 C 
ATOM     26  C   UNL     1       6.574   1.754  -4.534  0.00  0.00    +0.000 C 
BRANCH  20  27
ATOM     27  C   UNL     1       9.024  -0.141  -5.295  0.00  0.00    +0.000 C 
ATOM     28  C   UNL     1       9.740   1.162  -5.689  0.00  0.00    +0.000 C 
ATOM     29  C   UNL     1      10.503   0.994  -7.003  0.00  0.00    +0.000 C 
ATOM     30  C   UNL     1       9.585   0.530  -8.123  0.00  0.00    +0.000 C 
ATOM     31  C   UNL     1       8.864  -0.735  -7.722  0.00  0.00    +0.000 C 
ATOM     32  O   UNL     1       8.765  -1.691  -8.491  0.00  0.00    +0.000 OA
ATOM     33  C   UNL     1       8.131  -0.706  -6.402  0.00  0.00    +0.000 C 
ENDBRANCH  20  27
ENDBRANCH   5  17
BRANCH   1  34
ATOM     34  C   UNL     1       2.930  -0.971   0.896  0.00  0.00    +0.000 C 
BRANCH  34  36
ATOM     35  C   UNL     1       2.551   1.234   1.856  0.00  0.00    +0.000 C 
ATOM     36  N   UNL     1       2.241  -0.197   1.943  0.00  0.00    +0.000 NA
ATOM     37  C   UNL     1       0.793  -0.389   1.819  0.00  0.00    +0.000 C 
ENDBRANCH  34  36
ENDBRANCH   1  34
TORSDOF 4
