MODEL 1
REMARK VINA RESULT:      -9.8      0.000      0.000
REMARK  Name = 
REMARK  6 active torsions:
REMARK  status: ('A' for Active; 'I' for Inactive)
REMARK    1  A    between atoms: C_1  and  N_2
REMARK    2  A    between atoms: N_2  and  C_3
REMARK    3  A    between atoms: N_2  and  C_4
REMARK    4  A    between atoms: C_4  and  C_5
REMARK    5  A    between atoms: C_9  and  C_10
REMARK    6  A    between atoms: C_13  and  C_14
REMARK                            x       y       z     vdW  Elec       q    Type
REMARK                         _______ _______ _______ _____ _____    ______ ____
ROOT
ATOM      1  C   UNL     1      27.446  12.784  30.374  0.00  0.00    +0.000 A 
ATOM      2  C   UNL     1      27.124  11.541  29.840  0.00  0.00    +0.000 A 
ATOM      3  C   UNL     1      27.291  11.278  28.469  0.00  0.00    +0.000 A 
ATOM      4  C   UNL     1      27.816  12.275  27.608  0.00  0.00    +0.000 A 
ATOM      5  C   UNL     1      28.192  13.538  28.133  0.00  0.00    +0.000 A 
ATOM      6  C   UNL     1      27.942  13.763  29.509  0.00  0.00    +0.000 A 
ATOM      7  N   UNL     1      27.859  12.006  26.200  0.00  0.00    +0.000 N 
ATOM      8  C   UNL     1      28.880  12.378  25.335  0.00  0.00    +0.000 A 
ATOM      9  C   UNL     1      28.482  12.148  24.040  0.00  0.00    +0.000 A 
ATOM     10  C   UNL     1      27.219  11.534  24.107  0.00  0.00    +0.000 A 
ATOM     11  C   UNL     1      26.889  11.355  25.444  0.00  0.00    +0.000 A 
ATOM     12  C   UNL     1      25.674  10.729  25.915  0.00  0.00    +0.000 C 
ATOM     13  O   UNL     1      24.631  10.691  25.267  0.00  0.00    +0.000 OA
ATOM     14  N   UNL     1      25.707  10.091  27.123  0.00  0.00    +0.000 N 
ATOM     15  C   UNL     1      26.876   9.936  27.936  0.00  0.00    +0.000 C 
ATOM     16  H   UNL     1      24.830   9.671  27.401  0.00  0.00    +0.000 HD
ENDROOT
BRANCH   5  17
ATOM     17  C   UNL     1      28.617  14.715  27.343  0.00  0.00    +0.000 A 
ATOM     18  N   UNL     1      29.927  14.711  27.027  0.00  0.00    +0.000 NA
ATOM     19  C   UNL     1      30.387  15.664  26.201  0.00  0.00    +0.000 A 
ATOM     20  C   UNL     1      29.583  16.563  25.500  0.00  0.00    +0.000 A 
ATOM     21  C   UNL     1      28.198  16.497  25.757  0.00  0.00    +0.000 A 
ATOM     22  C   UNL     1      27.735  15.664  26.804  0.00  0.00    +0.000 A 
ATOM     23  C   UNL     1      26.331  15.839  27.356  0.00  0.00    +0.000 C 
ATOM     24  O   UNL     1      25.548  16.835  26.685  0.00  0.00    +0.000 OA
ATOM     25  C   UNL     1      25.734  16.757  25.278  0.00  0.00    +0.000 C 
ATOM     26  C   UNL     1      27.149  17.233  24.952  0.00  0.00    +0.000 C 
BRANCH  20  27
ATOM     27  C   UNL     1      30.301  17.508  24.552  0.00  0.00    +0.000 C 
ATOM     28  C   UNL     1      30.187  17.097  23.074  0.00  0.00    +0.000 C 
ATOM     29  C   UNL     1      30.852  18.130  22.164  0.00  0.00    +0.000 C 
ATOM     30  C   UNL     1      32.307  18.352  22.546  0.00  0.00    +0.000 C 
ATOM     31  C   UNL     1      32.417  18.729  24.004  0.00  0.00    +0.000 C 
ATOM     32  O   UNL     1      33.137  19.655  24.377  0.00  0.00    +0.000 OA
ATOM     33  C   UNL     1      31.735  17.814  24.992  0.00  0.00    +0.000 C 
ENDBRANCH  20  27
ENDBRANCH   5  17
BRANCH   1  34
ATOM     34  C   UNL     1      27.224  13.118  31.834  0.00  0.00    +0.000 C 
BRANCH  34  36
ATOM     35  C   UNL     1      29.269  13.374  33.130  0.00  0.00    +0.000 C 
ATOM     36  N   UNL     1      28.180  12.469  32.748  0.00  0.00    +0.000 NA
ATOM     37  C   UNL     1      27.475  12.020  33.953  0.00  0.00    +0.000 C 
ENDBRANCH  34  36
ENDBRANCH   1  34
TORSDOF 4
ENDMDL
MODEL 2
REMARK VINA RESULT:      -8.9      3.393      5.994
REMARK  Name = 
REMARK  6 active torsions:
REMARK  status: ('A' for Active; 'I' for Inactive)
REMARK    1  A    between atoms: C_1  and  N_2
REMARK    2  A    between atoms: N_2  and  C_3
REMARK    3  A    between atoms: N_2  and  C_4
REMARK    4  A    between atoms: C_4  and  C_5
REMARK    5  A    between atoms: C_9  and  C_10
REMARK    6  A    between atoms: C_13  and  C_14
REMARK                            x       y       z     vdW  Elec       q    Type
REMARK                         _______ _______ _______ _____ _____    ______ ____
ROOT
ATOM      1  C   UNL     1      23.614  14.338  31.289  0.00  0.00    +0.000 A 
ATOM      2  C   UNL     1      24.006  14.267  32.622  0.00  0.00    +0.000 A 
ATOM      3  C   UNL     1      25.367  14.222  32.973  0.00  0.00    +0.000 A 
ATOM      4  C   UNL     1      26.367  14.273  31.969  0.00  0.00    +0.000 A 
ATOM      5  C   UNL     1      25.996  14.387  30.605  0.00  0.00    +0.000 A 
ATOM      6  C   UNL     1      24.611  14.364  30.311  0.00  0.00    +0.000 A 
ATOM      7  N   UNL     1      27.736  14.106  32.362  0.00  0.00    +0.000 N 
ATOM      8  C   UNL     1      28.821  14.793  31.832  0.00  0.00    +0.000 A 
ATOM      9  C   UNL     1      29.984  14.223  32.289  0.00  0.00    +0.000 A 
ATOM     10  C   UNL     1      29.613  13.215  33.197  0.00  0.00    +0.000 A 
ATOM     11  C   UNL     1      28.229  13.220  33.315  0.00  0.00    +0.000 A 
ATOM     12  C   UNL     1      27.475  12.341  34.179  0.00  0.00    +0.000 C 
ATOM     13  O   UNL     1      27.875  11.241  34.551  0.00  0.00    +0.000 OA
ATOM     14  N   UNL     1      26.276  12.788  34.660  0.00  0.00    +0.000 N 
ATOM     15  C   UNL     1      25.733  14.092  34.424  0.00  0.00    +0.000 C 
ATOM     16  H   UNL     1      25.792  12.132  35.260  0.00  0.00    +0.000 HD
ENDROOT
BRANCH   5  17
ATOM     17  C   UNL     1      26.914  14.308  29.446  0.00  0.00    +0.000 A 
ATOM     18  N   UNL     1      27.277  13.049  29.129  0.00  0.00    +0.000 NA
ATOM     19  C   UNL     1      28.000  12.857  28.014  0.00  0.00    +0.000 A 
ATOM     20  C   UNL     1      28.262  13.837  27.058  0.00  0.00    +0.000 A 
ATOM     21  C   UNL     1      27.790  15.135  27.345  0.00  0.00    +0.000 A 
ATOM     22  C   UNL     1      27.245  15.397  28.626  0.00  0.00    +0.000 A 
ATOM     23  C   UNL     1      27.075  16.827  29.105  0.00  0.00    +0.000 C 
ATOM     24  O   UNL     1      27.438  17.826  28.144  0.00  0.00    +0.000 OA
ATOM     25  C   UNL     1      26.971  17.469  26.848  0.00  0.00    +0.000 C 
ATOM     26  C   UNL     1      27.787  16.277  26.353  0.00  0.00    +0.000 C 
BRANCH  20  27
ATOM     27  C   UNL     1      29.031  13.387  25.827  0.00  0.00    +0.000 C 
ATOM     28  C   UNL     1      30.187  14.328  25.450  0.00  0.00    +0.000 C 
ATOM     29  C   UNL     1      30.976  13.780  24.261  0.00  0.00    +0.000 C 
ATOM     30  C   UNL     1      30.074  13.535  23.061  0.00  0.00    +0.000 C 
ATOM     31  C   UNL     1      28.925  12.632  23.442  0.00  0.00    +0.000 C 
ATOM     32  O   UNL     1      28.583  11.689  22.729  0.00  0.00    +0.000 OA
ATOM     33  C   UNL     1      28.116  13.041  24.650  0.00  0.00    +0.000 C 
ENDBRANCH  20  27
ENDBRANCH   5  17
BRANCH   1  34
ATOM     34  C   UNL     1      22.158  14.328  30.875  0.00  0.00    +0.000 C 
BRANCH  34  36
ATOM     35  C   UNL     1      20.593  13.861  32.681  0.00  0.00    +0.000 C 
ATOM     36  N   UNL     1      21.349  13.302  31.555  0.00  0.00    +0.000 NA
ATOM     37  C   UNL     1      20.418  12.699  30.596  0.00  0.00    +0.000 C 
ENDBRANCH  34  36
ENDBRANCH   1  34
TORSDOF 4
ENDMDL
MODEL 3
REMARK VINA RESULT:      -8.5      4.579      8.099
REMARK  Name = 
REMARK  6 active torsions:
REMARK  status: ('A' for Active; 'I' for Inactive)
REMARK    1  A    between atoms: C_1  and  N_2
REMARK    2  A    between atoms: N_2  and  C_3
REMARK    3  A    between atoms: N_2  and  C_4
REMARK    4  A    between atoms: C_4  and  C_5
REMARK    5  A    between atoms: C_9  and  C_10
REMARK    6  A    between atoms: C_13  and  C_14
REMARK                            x       y       z     vdW  Elec       q    Type
REMARK                         _______ _______ _______ _____ _____    ______ ____
ROOT
ATOM      1  C   UNL     1      27.063   9.138  34.798  0.00  0.00    +0.000 A 
ATOM      2  C   UNL     1      26.425  10.060  35.622  0.00  0.00    +0.000 A 
ATOM      3  C   UNL     1      25.637  11.090  35.078  0.00  0.00    +0.000 A 
ATOM      4  C   UNL     1      25.460  11.190  33.675  0.00  0.00    +0.000 A 
ATOM      5  C   UNL     1      26.065  10.240  32.814  0.00  0.00    +0.000 A 
ATOM      6  C   UNL     1      26.897   9.264  33.417  0.00  0.00    +0.000 A 
ATOM      7  N   UNL     1      24.747  12.322  33.158  0.00  0.00    +0.000 N 
ATOM      8  C   UNL     1      23.857  12.301  32.091  0.00  0.00    +0.000 A 
ATOM      9  C   UNL     1      23.538  13.591  31.743  0.00  0.00    +0.000 A 
ATOM     10  C   UNL     1      24.174  14.432  32.674  0.00  0.00    +0.000 A 
ATOM     11  C   UNL     1      24.831  13.638  33.604  0.00  0.00    +0.000 A 
ATOM     12  C   UNL     1      25.578  14.141  34.734  0.00  0.00    +0.000 C 
ATOM     13  O   UNL     1      26.091  15.257  34.770  0.00  0.00    +0.000 OA
ATOM     14  N   UNL     1      25.664  13.355  35.849  0.00  0.00    +0.000 N 
ATOM     15  C   UNL     1      25.014  12.089  36.011  0.00  0.00    +0.000 C 
ATOM     16  H   UNL     1      26.197  13.758  36.608  0.00  0.00    +0.000 HD
ENDROOT
BRANCH   5  17
ATOM     17  C   UNL     1      26.089  10.298  31.335  0.00  0.00    +0.000 A 
ATOM     18  N   UNL     1      26.801  11.332  30.846  0.00  0.00    +0.000 NA
ATOM     19  C   UNL     1      26.996  11.401  29.519  0.00  0.00    +0.000 A 
ATOM     20  C   UNL     1      26.667  10.391  28.615  0.00  0.00    +0.000 A 
ATOM     21  C   UNL     1      26.011   9.262  29.148  0.00  0.00    +0.000 A 
ATOM     22  C   UNL     1      25.585   9.291  30.498  0.00  0.00    +0.000 A 
ATOM     23  C   UNL     1      24.569   8.281  31.000  0.00  0.00    +0.000 C 
ATOM     24  O   UNL     1      24.168   7.306  30.029  0.00  0.00    +0.000 OA
ATOM     25  C   UNL     1      25.290   6.847  29.285  0.00  0.00    +0.000 C 
ATOM     26  C   UNL     1      25.763   7.983  28.378  0.00  0.00    +0.000 C 
BRANCH  20  27
ATOM     27  C   UNL     1      27.049  10.637  27.165  0.00  0.00    +0.000 C 
ATOM     28  C   UNL     1      28.447  11.256  26.997  0.00  0.00    +0.000 C 
ATOM     29  C   UNL     1      28.811  11.399  25.519  0.00  0.00    +0.000 C 
ATOM     30  C   UNL     1      27.772  12.216  24.768  0.00  0.00    +0.000 C 
ATOM     31  C   UNL     1      26.397  11.621  24.957  0.00  0.00    +0.000 C 
ATOM     32  O   UNL     1      25.623  11.476  24.012  0.00  0.00    +0.000 OA
ATOM     33  C   UNL     1      25.959  11.370  26.381  0.00  0.00    +0.000 C 
ENDBRANCH  20  27
ENDBRANCH   5  17
BRANCH   1  34
ATOM     34  C   UNL     1      27.966   8.054  35.348  0.00  0.00    +0.000 C 
BRANCH  34  36
ATOM     35  C   UNL     1      29.531   6.485  34.340  0.00  0.00    +0.000 C 
ATOM     36  N   UNL     1      28.128   6.898  34.449  0.00  0.00    +0.000 NA
ATOM     37  C   UNL     1      27.329   5.775  34.949  0.00  0.00    +0.000 C 
ENDBRANCH  34  36
ENDBRANCH   1  34
TORSDOF 4
ENDMDL
MODEL 4
REMARK VINA RESULT:      -7.7      4.343      7.267
REMARK  Name = 
REMARK  6 active torsions:
REMARK  status: ('A' for Active; 'I' for Inactive)
REMARK    1  A    between atoms: C_1  and  N_2
REMARK    2  A    between atoms: N_2  and  C_3
REMARK    3  A    between atoms: N_2  and  C_4
REMARK    4  A    between atoms: C_4  and  C_5
REMARK    5  A    between atoms: C_9  and  C_10
REMARK    6  A    between atoms: C_13  and  C_14
REMARK                            x       y       z     vdW  Elec       q    Type
REMARK                         _______ _______ _______ _____ _____    ______ ____
ROOT
ATOM      1  C   UNL     1      26.573   9.750  34.698  0.00  0.00    +0.000 A 
ATOM      2  C   UNL     1      25.611  10.495  35.373  0.00  0.00    +0.000 A 
ATOM      3  C   UNL     1      24.970  11.580  34.749  0.00  0.00    +0.000 A 
ATOM      4  C   UNL     1      25.278  11.918  33.407  0.00  0.00    +0.000 A 
ATOM      5  C   UNL     1      26.225  11.150  32.682  0.00  0.00    +0.000 A 
ATOM      6  C   UNL     1      26.882  10.110  33.384  0.00  0.00    +0.000 A 
ATOM      7  N   UNL     1      24.689  13.101  32.850  0.00  0.00    +0.000 N 
ATOM      8  C   UNL     1      24.226  13.239  31.547  0.00  0.00    +0.000 A 
ATOM      9  C   UNL     1      23.933  14.560  31.309  0.00  0.00    +0.000 A 
ATOM     10  C   UNL     1      24.132  15.245  32.522  0.00  0.00    +0.000 A 
ATOM     11  C   UNL     1      24.497  14.321  33.492  0.00  0.00    +0.000 A 
ATOM     12  C   UNL     1      24.761  14.642  34.876  0.00  0.00    +0.000 C 
ATOM     13  O   UNL     1      25.130  15.749  35.262  0.00  0.00    +0.000 OA
ATOM     14  N   UNL     1      24.528  13.676  35.815  0.00  0.00    +0.000 N 
ATOM     15  C   UNL     1      23.978  12.382  35.541  0.00  0.00    +0.000 C 
ATOM     16  H   UNL     1      24.730  13.957  36.766  0.00  0.00    +0.000 HD
ENDROOT
BRANCH   5  17
ATOM     17  C   UNL     1      26.750  11.465  31.335  0.00  0.00    +0.000 A 
ATOM     18  N   UNL     1      26.132  10.795  30.343  0.00  0.00    +0.000 NA
ATOM     19  C   UNL     1      26.442  11.106  29.074  0.00  0.00    +0.000 A 
ATOM     20  C   UNL     1      27.229  12.193  28.692  0.00  0.00    +0.000 A 
ATOM     21  C   UNL     1      27.793  12.955  29.735  0.00  0.00    +0.000 A 
ATOM     22  C   UNL     1      27.672  12.489  31.067  0.00  0.00    +0.000 A 
ATOM     23  C   UNL     1      28.560  13.058  32.159  0.00  0.00    +0.000 C 
ATOM     24  O   UNL     1      29.432  14.110  31.730  0.00  0.00    +0.000 OA
ATOM     25  C   UNL     1      28.751  15.003  30.857  0.00  0.00    +0.000 C 
ATOM     26  C   UNL     1      28.495  14.281  29.535  0.00  0.00    +0.000 C 
BRANCH  20  27
ATOM     27  C   UNL     1      27.388  12.415  27.198  0.00  0.00    +0.000 C 
ATOM     28  C   UNL     1      26.053  12.419  26.434  0.00  0.00    +0.000 C 
ATOM     29  C   UNL     1      26.268  12.733  24.953  0.00  0.00    +0.000 C 
ATOM     30  C   UNL     1      27.245  11.758  24.315  0.00  0.00    +0.000 C 
ATOM     31  C   UNL     1      28.545  11.737  25.083  0.00  0.00    +0.000 C 
ATOM     32  O   UNL     1      29.633  11.772  24.508  0.00  0.00    +0.000 OA
ATOM     33  C   UNL     1      28.447  11.504  26.572  0.00  0.00    +0.000 C 
ENDBRANCH  20  27
ENDBRANCH   5  17
BRANCH   1  34
ATOM     34  C   UNL     1      27.324   8.613  35.360  0.00  0.00    +0.000 C 
BRANCH  34  36
ATOM     35  C   UNL     1      26.613   6.557  34.267  0.00  0.00    +0.000 C 
ATOM     36  N   UNL     1      26.540   7.372  35.485  0.00  0.00    +0.000 NA
ATOM     37  C   UNL     1      27.039   6.592  36.622  0.00  0.00    +0.000 C 
ENDBRANCH  34  36
ENDBRANCH   1  34
TORSDOF 4
ENDMDL
