MODEL 1
REMARK VINA RESULT:      -8.3      0.000      0.000
REMARK  Name = 
REMARK  3 active torsions:
REMARK  status: ('A' for Active; 'I' for Inactive)
REMARK    1  A    between atoms: C_1  and  O_2
REMARK    2  A    between atoms: O_2  and  N_3
REMARK    3  A    between atoms: C_4  and  C_5
REMARK                            x       y       z     vdW  Elec       q    Type
REMARK                         _______ _______ _______ _____ _____    ______ ____
ROOT
ATOM      1  C   UNL     1      24.983   8.017  26.612  0.00  0.00    +0.000 A 
ATOM      2  C   UNL     1      24.156   7.340  25.730  0.00  0.00    +0.000 A 
ATOM      3  N   UNL     1      23.794   8.208  24.741  0.00  0.00    +0.000 N 
ATOM      4  C   UNL     1      24.302   9.460  24.990  0.00  0.00    +0.000 A 
ATOM      5  C   UNL     1      24.148  10.660  24.275  0.00  0.00    +0.000 A 
ATOM      6  C   UNL     1      24.945  11.748  24.641  0.00  0.00    +0.000 A 
ATOM      7  C   UNL     1      25.808  11.657  25.731  0.00  0.00    +0.000 A 
ATOM      8  C   UNL     1      25.884  10.480  26.490  0.00  0.00    +0.000 A 
ATOM      9  C   UNL     1      25.124   9.352  26.110  0.00  0.00    +0.000 A 
ATOM     10  C   UNL     1      23.175  10.762  23.160  0.00  0.00    +0.000 C 
ATOM     11  O   UNL     1      23.409  11.467  22.183  0.00  0.00    +0.000 OA
ATOM     12  N   UNL     1      21.953  10.143  23.363  0.00  0.00    +0.000 N 
ATOM     13  C   UNL     1      21.823   8.684  23.322  0.00  0.00    +0.000 C 
ATOM     14  C   UNL     1      23.102   7.870  23.508  0.00  0.00    +0.000 C 
ATOM     15  H   UNL     1      21.517  10.504  24.204  0.00  0.00    +0.000 HD
ENDROOT
BRANCH   1  17
ATOM     16  N   UNL     1      24.943   7.359  28.899  0.00  0.00    +0.000 NA
ATOM     17  C   UNL     1      25.610   7.463  27.794  0.00  0.00    +0.000 C 
BRANCH  16  19
ATOM     18  C   UNL     1      27.081   7.353  29.740  0.00  0.00    +0.000 C 
ATOM     19  O   UNL     1      25.782   6.788  29.870  0.00  0.00    +0.000 OA
ENDBRANCH  16  19
ENDBRANCH   1  17
TORSDOF 2
ENDMDL
MODEL 2
REMARK VINA RESULT:      -7.6      3.247      6.319
REMARK  Name = 
REMARK  3 active torsions:
REMARK  status: ('A' for Active; 'I' for Inactive)
REMARK    1  A    between atoms: C_1  and  O_2
REMARK    2  A    between atoms: O_2  and  N_3
REMARK    3  A    between atoms: C_4  and  C_5
REMARK                            x       y       z     vdW  Elec       q    Type
REMARK                         _______ _______ _______ _____ _____    ______ ____
ROOT
ATOM      1  C   UNL     1      24.587  11.724  24.544  0.00  0.00    +0.000 A 
ATOM      2  C   UNL     1      24.911  13.066  24.431  0.00  0.00    +0.000 A 
ATOM      3  N   UNL     1      25.819  13.366  25.405  0.00  0.00    +0.000 N 
ATOM      4  C   UNL     1      26.045  12.271  26.205  0.00  0.00    +0.000 A 
ATOM      5  C   UNL     1      26.855  12.131  27.344  0.00  0.00    +0.000 A 
ATOM      6  C   UNL     1      27.062  10.845  27.848  0.00  0.00    +0.000 A 
ATOM      7  C   UNL     1      26.418   9.750  27.275  0.00  0.00    +0.000 A 
ATOM      8  C   UNL     1      25.540   9.917  26.194  0.00  0.00    +0.000 A 
ATOM      9  C   UNL     1      25.354  11.202  25.637  0.00  0.00    +0.000 A 
ATOM     10  C   UNL     1      27.479  13.316  27.983  0.00  0.00    +0.000 C 
ATOM     11  O   UNL     1      28.584  13.237  28.510  0.00  0.00    +0.000 OA
ATOM     12  N   UNL     1      26.684  14.445  28.073  0.00  0.00    +0.000 N 
ATOM     13  C   UNL     1      26.384  15.261  26.893  0.00  0.00    +0.000 C 
ATOM     14  C   UNL     1      26.575  14.601  25.529  0.00  0.00    +0.000 C 
ATOM     15  H   UNL     1      25.828  14.228  28.568  0.00  0.00    +0.000 HD
ENDROOT
BRANCH   1  17
ATOM     16  N   UNL     1      23.252  11.510  22.586  0.00  0.00    +0.000 NA
ATOM     17  C   UNL     1      23.676  10.988  23.693  0.00  0.00    +0.000 C 
BRANCH  16  19
ATOM     18  C   UNL     1      22.641   9.296  22.508  0.00  0.00    +0.000 C 
ATOM     19  O   UNL     1      22.397  10.587  21.961  0.00  0.00    +0.000 OA
ENDBRANCH  16  19
ENDBRANCH   1  17
TORSDOF 2
ENDMDL
MODEL 3
REMARK VINA RESULT:      -6.9      2.547      5.990
REMARK  Name = 
REMARK  3 active torsions:
REMARK  status: ('A' for Active; 'I' for Inactive)
REMARK    1  A    between atoms: C_1  and  O_2
REMARK    2  A    between atoms: O_2  and  N_3
REMARK    3  A    between atoms: C_4  and  C_5
REMARK                            x       y       z     vdW  Elec       q    Type
REMARK                         _______ _______ _______ _____ _____    ______ ____
ROOT
ATOM      1  C   UNL     1      24.959  10.615  25.185  0.00  0.00    +0.000 A 
ATOM      2  C   UNL     1      25.202   9.512  25.988  0.00  0.00    +0.000 A 
ATOM      3  N   UNL     1      25.948   9.921  27.054  0.00  0.00    +0.000 N 
ATOM      4  C   UNL     1      26.268  11.252  26.936  0.00  0.00    +0.000 A 
ATOM      5  C   UNL     1      27.049  12.075  27.764  0.00  0.00    +0.000 A 
ATOM      6  C   UNL     1      27.042  13.450  27.517  0.00  0.00    +0.000 A 
ATOM      7  C   UNL     1      26.338  13.970  26.432  0.00  0.00    +0.000 A 
ATOM      8  C   UNL     1      25.636  13.125  25.561  0.00  0.00    +0.000 A 
ATOM      9  C   UNL     1      25.588  11.736  25.819  0.00  0.00    +0.000 A 
ATOM     10  C   UNL     1      27.848  11.498  28.873  0.00  0.00    +0.000 C 
ATOM     11  O   UNL     1      28.015  12.121  29.917  0.00  0.00    +0.000 OA
ATOM     12  N   UNL     1      28.499  10.309  28.596  0.00  0.00    +0.000 N 
ATOM     13  C   UNL     1      27.763   9.045  28.492  0.00  0.00    +0.000 C 
ATOM     14  C   UNL     1      26.260   9.140  28.240  0.00  0.00    +0.000 C 
ATOM     15  H   UNL     1      29.103  10.423  27.791  0.00  0.00    +0.000 HD
ENDROOT
BRANCH   1  17
ATOM     16  N   UNL     1      23.790  11.756  23.455  0.00  0.00    +0.000 NA
ATOM     17  C   UNL     1      24.185  10.631  23.962  0.00  0.00    +0.000 C 
BRANCH  16  19
ATOM     18  C   UNL     1      22.873  10.077  22.182  0.00  0.00    +0.000 C 
ATOM     19  O   UNL     1      23.074  11.482  22.277  0.00  0.00    +0.000 OA
ENDBRANCH  16  19
ENDBRANCH   1  17
TORSDOF 2
ENDMDL
MODEL 4
REMARK VINA RESULT:      -6.7      6.749      8.697
REMARK  Name = 
REMARK  3 active torsions:
REMARK  status: ('A' for Active; 'I' for Inactive)
REMARK    1  A    between atoms: C_1  and  O_2
REMARK    2  A    between atoms: O_2  and  N_3
REMARK    3  A    between atoms: C_4  and  C_5
REMARK                            x       y       z     vdW  Elec       q    Type
REMARK                         _______ _______ _______ _____ _____    ______ ____
ROOT
ATOM      1  C   UNL     1      27.132  15.728  25.801  0.00  0.00    +0.000 A 
ATOM      2  C   UNL     1      27.182  14.347  25.893  0.00  0.00    +0.000 A 
ATOM      3  N   UNL     1      28.445  13.947  25.565  0.00  0.00    +0.000 N 
ATOM      4  C   UNL     1      29.208  15.026  25.186  0.00  0.00    +0.000 A 
ATOM      5  C   UNL     1      30.534  15.083  24.728  0.00  0.00    +0.000 A 
ATOM      6  C   UNL     1      31.133  16.340  24.606  0.00  0.00    +0.000 A 
ATOM      7  C   UNL     1      30.402  17.498  24.861  0.00  0.00    +0.000 A 
ATOM      8  C   UNL     1      29.051  17.428  25.230  0.00  0.00    +0.000 A 
ATOM      9  C   UNL     1      28.438  16.167  25.408  0.00  0.00    +0.000 A 
ATOM     10  C   UNL     1      31.278  13.843  24.395  0.00  0.00    +0.000 C 
ATOM     11  O   UNL     1      32.486  13.762  24.593  0.00  0.00    +0.000 OA
ATOM     12  N   UNL     1      30.561  12.868  23.723  0.00  0.00    +0.000 N 
ATOM     13  C   UNL     1      29.550  12.058  24.409  0.00  0.00    +0.000 C 
ATOM     14  C   UNL     1      28.995  12.611  25.720  0.00  0.00    +0.000 C 
ATOM     15  H   UNL     1      30.174  13.250  22.868  0.00  0.00    +0.000 HD
ENDROOT
BRANCH   1  17
ATOM     16  N   UNL     1      25.223  16.977  25.124  0.00  0.00    +0.000 NA
ATOM     17  C   UNL     1      25.985  16.565  26.087  0.00  0.00    +0.000 C 
BRANCH  16  19
ATOM     18  C   UNL     1      23.785  17.163  26.906  0.00  0.00    +0.000 C 
ATOM     19  O   UNL     1      24.192  17.755  25.678  0.00  0.00    +0.000 OA
ENDBRANCH  16  19
ENDBRANCH   1  17
TORSDOF 2
ENDMDL
MODEL 5
REMARK VINA RESULT:      -5.8      7.218      8.853
REMARK  Name = 
REMARK  3 active torsions:
REMARK  status: ('A' for Active; 'I' for Inactive)
REMARK    1  A    between atoms: C_1  and  O_2
REMARK    2  A    between atoms: O_2  and  N_3
REMARK    3  A    between atoms: C_4  and  C_5
REMARK                            x       y       z     vdW  Elec       q    Type
REMARK                         _______ _______ _______ _____ _____    ______ ____
ROOT
ATOM      1  C   UNL     1      26.152  15.994  24.819  0.00  0.00    +0.000 A 
ATOM      2  C   UNL     1      26.637  14.870  24.171  0.00  0.00    +0.000 A 
ATOM      3  N   UNL     1      27.893  15.152  23.717  0.00  0.00    +0.000 N 
ATOM      4  C   UNL     1      28.218  16.461  23.985  0.00  0.00    +0.000 A 
ATOM      5  C   UNL     1      29.373  17.193  23.662  0.00  0.00    +0.000 A 
ATOM      6  C   UNL     1      29.530  18.456  24.237  0.00  0.00    +0.000 A 
ATOM      7  C   UNL     1      28.529  18.996  25.043  0.00  0.00    +0.000 A 
ATOM      8  C   UNL     1      27.341  18.289  25.282  0.00  0.00    +0.000 A 
ATOM      9  C   UNL     1      27.181  16.989  24.752  0.00  0.00    +0.000 A 
ATOM     10  C   UNL     1      30.398  16.632  22.748  0.00  0.00    +0.000 C 
ATOM     11  O   UNL     1      31.588  16.884  22.908  0.00  0.00    +0.000 OA
ATOM     12  N   UNL     1      29.917  15.950  21.644  0.00  0.00    +0.000 N 
ATOM     13  C   UNL     1      29.326  14.615  21.772  0.00  0.00    +0.000 C 
ATOM     14  C   UNL     1      28.843  14.203  23.161  0.00  0.00    +0.000 C 
ATOM     15  H   UNL     1      29.301  16.549  21.107  0.00  0.00    +0.000 HD
ENDROOT
BRANCH   1  17
ATOM     16  N   UNL     1      24.793  16.239  26.757  0.00  0.00    +0.000 NA
ATOM     17  C   UNL     1      24.864  16.119  25.469  0.00  0.00    +0.000 C 
BRANCH  16  19
ATOM     18  C   UNL     1      23.354  16.500  28.530  0.00  0.00    +0.000 C 
ATOM     19  O   UNL     1      23.440  16.349  27.117  0.00  0.00    +0.000 OA
ENDBRANCH  16  19
ENDBRANCH   1  17
TORSDOF 2
ENDMDL
MODEL 6
REMARK VINA RESULT:      -5.7      5.040      6.603
REMARK  Name = 
REMARK  3 active torsions:
REMARK  status: ('A' for Active; 'I' for Inactive)
REMARK    1  A    between atoms: C_1  and  O_2
REMARK    2  A    between atoms: O_2  and  N_3
REMARK    3  A    between atoms: C_4  and  C_5
REMARK                            x       y       z     vdW  Elec       q    Type
REMARK                         _______ _______ _______ _____ _____    ______ ____
ROOT
ATOM      1  C   UNL     1      28.420  13.359  26.420  0.00  0.00    +0.000 A 
ATOM      2  C   UNL     1      29.520  13.867  25.747  0.00  0.00    +0.000 A 
ATOM      3  N   UNL     1      29.072  14.761  24.819  0.00  0.00    +0.000 N 
ATOM      4  C   UNL     1      27.698  14.799  24.812  0.00  0.00    +0.000 A 
ATOM      5  C   UNL     1      26.814  15.529  24.000  0.00  0.00    +0.000 A 
ATOM      6  C   UNL     1      25.460  15.536  24.345  0.00  0.00    +0.000 A 
ATOM      7  C   UNL     1      25.000  14.776  25.418  0.00  0.00    +0.000 A 
ATOM      8  C   UNL     1      25.882  13.980  26.164  0.00  0.00    +0.000 A 
ATOM      9  C   UNL     1      27.263  13.996  25.865  0.00  0.00    +0.000 A 
ATOM     10  C   UNL     1      27.310  16.279  22.819  0.00  0.00    +0.000 C 
ATOM     11  O   UNL     1      26.789  17.337  22.482  0.00  0.00    +0.000 OA
ATOM     12  N   UNL     1      28.274  15.641  22.058  0.00  0.00    +0.000 N 
ATOM     13  C   UNL     1      29.654  15.510  22.533  0.00  0.00    +0.000 C 
ATOM     14  C   UNL     1      29.887  15.672  24.033  0.00  0.00    +0.000 C 
ATOM     15  H   UNL     1      27.930  14.741  21.746  0.00  0.00    +0.000 HD
ENDROOT
BRANCH   1  17
ATOM     16  N   UNL     1      28.098  11.168  27.290  0.00  0.00    +0.000 NA
ATOM     17  C   UNL     1      28.448  12.397  27.502  0.00  0.00    +0.000 C 
BRANCH  16  19
ATOM     18  C   UNL     1      27.535   9.219  28.370  0.00  0.00    +0.000 C 
ATOM     19  O   UNL     1      28.225  10.458  28.496  0.00  0.00    +0.000 OA
ENDBRANCH  16  19
ENDBRANCH   1  17
TORSDOF 2
ENDMDL
MODEL 7
REMARK VINA RESULT:      -5.4      6.723      9.348
REMARK  Name = 
REMARK  3 active torsions:
REMARK  status: ('A' for Active; 'I' for Inactive)
REMARK    1  A    between atoms: C_1  and  O_2
REMARK    2  A    between atoms: O_2  and  N_3
REMARK    3  A    between atoms: C_4  and  C_5
REMARK                            x       y       z     vdW  Elec       q    Type
REMARK                         _______ _______ _______ _____ _____    ______ ____
ROOT
ATOM      1  C   UNL     1      27.748  14.280  27.892  0.00  0.00    +0.000 A 
ATOM      2  C   UNL     1      29.021  13.935  28.315  0.00  0.00    +0.000 A 
ATOM      3  N   UNL     1      29.004  13.844  29.677  0.00  0.00    +0.000 N 
ATOM      4  C   UNL     1      27.769  14.194  30.167  0.00  0.00    +0.000 A 
ATOM      5  C   UNL     1      27.312  14.290  31.492  0.00  0.00    +0.000 A 
ATOM      6  C   UNL     1      25.942  14.471  31.702  0.00  0.00    +0.000 A 
ATOM      7  C   UNL     1      25.076  14.627  30.621  0.00  0.00    +0.000 A 
ATOM      8  C   UNL     1      25.561  14.619  29.305  0.00  0.00    +0.000 A 
ATOM      9  C   UNL     1      26.935  14.388  29.067  0.00  0.00    +0.000 A 
ATOM     10  C   UNL     1      28.257  14.190  32.631  0.00  0.00    +0.000 C 
ATOM     11  O   UNL     1      27.915  13.670  33.688  0.00  0.00    +0.000 OA
ATOM     12  N   UNL     1      29.467  14.843  32.473  0.00  0.00    +0.000 N 
ATOM     13  C   UNL     1      30.507  14.314  31.586  0.00  0.00    +0.000 C 
ATOM     14  C   UNL     1      30.064  13.315  30.520  0.00  0.00    +0.000 C 
ATOM     15  H   UNL     1      29.309  15.823  32.272  0.00  0.00    +0.000 HD
ENDROOT
BRANCH   1  17
ATOM     16  N   UNL     1      28.196  14.529  25.568  0.00  0.00    +0.000 NA
ATOM     17  C   UNL     1      27.321  14.460  26.520  0.00  0.00    +0.000 C 
BRANCH  16  19
ATOM     18  C   UNL     1      28.390  15.316  23.418  0.00  0.00    +0.000 C 
ATOM     19  O   UNL     1      27.514  14.694  24.351  0.00  0.00    +0.000 OA
ENDBRANCH  16  19
ENDBRANCH   1  17
TORSDOF 2
ENDMDL
