REMARK  Name = 
REMARK  5 active torsions:
REMARK  status: ('A' for Active; 'I' for Inactive)
REMARK    1  A    between atoms: C_1  and  C_2
REMARK    2  A    between atoms: C_14  and  C_15
REMARK    3  A    between atoms: C_15  and  N_16
REMARK    4  A    between atoms: N_16  and  C_17
REMARK    5  A    between atoms: N_16  and  C_18
REMARK                            x       y       z     vdW  Elec       q    Type
REMARK                         _______ _______ _______ _____ _____    ______ ____
ROOT
ATOM      1  C   UNL     1       0.844  -0.269  -0.038  0.00  0.00    +0.000 C 
ATOM      2  C   UNL     1       2.359  -0.090  -0.004  0.00  0.00    +0.000 C 
ATOM      3  N   UNL     1       3.018  -0.993  -0.911  0.00  0.00    +0.000 N 
ATOM      4  C   UNL     1       4.351  -1.297  -0.862  0.00  0.00    +0.000 C 
ATOM      5  O   UNL     1       4.803  -2.101  -1.675  0.00  0.00    +0.000 OA
ATOM      6  C   UNL     1       5.148  -0.685   0.181  0.00  0.00    +0.000 A 
ATOM      7  C   UNL     1       6.212  -1.291   0.834  0.00  0.00    +0.000 A 
ATOM      8  C   UNL     1       6.766  -0.365   1.737  0.00  0.00    +0.000 A 
ATOM      9  C   UNL     1       6.073   0.811   1.579  0.00  0.00    +0.000 A 
ATOM     10  N   UNL     1       5.074   0.630   0.638  0.00  0.00    +0.000 N 
ATOM     11  C   UNL     1       4.177   1.646   0.182  0.00  0.00    +0.000 A 
ATOM     12  C   UNL     1       4.620   2.975   0.118  0.00  0.00    +0.000 A 
ATOM     13  C   UNL     1       3.822   3.948  -0.491  0.00  0.00    +0.000 A 
ATOM     14  C   UNL     1       2.581   3.611  -1.041  0.00  0.00    +0.000 A 
ATOM     15  C   UNL     1       2.112   2.293  -0.900  0.00  0.00    +0.000 A 
ATOM     16  C   UNL     1       2.881   1.307  -0.257  0.00  0.00    +0.000 A 
ATOM     17  H   UNL     1       2.528  -1.372  -1.711  0.00  0.00    +0.000 HD
ENDROOT
BRANCH  14  18
ATOM     18  C   UNL     1       1.777   4.637  -1.817  0.00  0.00    +0.000 C 
BRANCH  18  19
ATOM     19  N   UNL     1       0.392   4.807  -1.343  0.00  0.00    +0.000 NA
ATOM     20  C   UNL     1       0.347   5.348   0.018  0.00  0.00    +0.000 C 
ATOM     21  C   UNL     1      -0.329   5.707  -2.250  0.00  0.00    +0.000 C 
ENDBRANCH  18  19
ENDBRANCH  14  18
TORSDOF 2
