REMARK  Name = 
REMARK  3 active torsions:
REMARK  status: ('A' for Active; 'I' for Inactive)
REMARK    1  A    between atoms: C_7  and  C_8
REMARK    2  A    between atoms: C_8  and  C_9
REMARK    3  A    between atoms: C_9  and  C_10
REMARK                            x       y       z     vdW  Elec       q    Type
REMARK                         _______ _______ _______ _____ _____    ______ ____
ROOT
ATOM      1  O   UNL     1       0.682  -0.983  -0.798  0.00  0.00    +0.000 OA
ATOM      2  C   UNL     1       1.778  -0.432  -0.709  0.00  0.00    +0.000 C 
ATOM      3  N   UNL     1       1.954   0.516   0.260  0.00  0.00    +0.000 N 
ATOM      4  C   UNL     1       3.175   1.221   0.495  0.00  0.00    +0.000 C 
ATOM      5  C   UNL     1       3.477   2.092  -0.686  0.00  0.00    +0.000 A 
ATOM      6  C   UNL     1       3.349   3.483  -0.583  0.00  0.00    +0.000 A 
ATOM      7  C   UNL     1       3.613   4.325  -1.678  0.00  0.00    +0.000 A 
ATOM      8  C   UNL     1       4.099   3.758  -2.857  0.00  0.00    +0.000 A 
ATOM      9  C   UNL     1       4.239   2.372  -2.976  0.00  0.00    +0.000 A 
ATOM     10  C   UNL     1       3.873   1.536  -1.912  0.00  0.00    +0.000 A 
ATOM     11  N   UNL     1       3.833   0.125  -2.103  0.00  0.00    +0.000 N 
ATOM     12  C   UNL     1       4.671  -0.591  -2.938  0.00  0.00    +0.000 A 
ATOM     13  C   UNL     1       4.300  -1.915  -2.924  0.00  0.00    +0.000 A 
ATOM     14  C   UNL     1       3.171  -2.014  -2.088  0.00  0.00    +0.000 A 
ATOM     15  C   UNL     1       2.904  -0.759  -1.558  0.00  0.00    +0.000 A 
ATOM     16  H   UNL     1       1.122   0.748   0.785  0.00  0.00    +0.000 HD
ENDROOT
BRANCH   7  17
ATOM     17  C   UNL     1       3.378   5.806  -1.509  0.00  0.00    +0.000 C 
BRANCH  17  18
ATOM     18  C   UNL     1       2.974   6.596  -2.768  0.00  0.00    +0.000 C 
BRANCH  18  19
ATOM     19  C   UNL     1       2.472   7.952  -2.340  0.00  0.00    +0.000 A 
ATOM     20  C   UNL     1       3.280   9.084  -2.312  0.00  0.00    +0.000 A 
ATOM     21  C   UNL     1       2.820  10.252  -1.697  0.00  0.00    +0.000 A 
ATOM     22  C   UNL     1       1.552  10.301  -1.085  0.00  0.00    +0.000 A 
ATOM     23  C   UNL     1       0.716   9.189  -1.172  0.00  0.00    +0.000 A 
ATOM     24  C   UNL     1       1.171   8.035  -1.818  0.00  0.00    +0.000 A 
ATOM     25  C   UNL     1      -0.674   9.191  -0.622  0.00  0.00    +0.000 C 
ATOM     26  C   UNL     1      -0.932  10.174   0.499  0.00  0.00    +0.000 C 
ATOM     27  C   UNL     1      -0.150  11.481   0.471  0.00  0.00    +0.000 C 
ATOM     28  C   UNL     1       1.123  11.555  -0.380  0.00  0.00    +0.000 C 
ENDBRANCH  18  19
ENDBRANCH  17  18
ENDBRANCH   7  17
TORSDOF 3
