REMARK  Name = 
REMARK  1 active torsions:
REMARK  status: ('A' for Active; 'I' for Inactive)
REMARK    1  A    between atoms: C_2  and  C_3
REMARK                            x       y       z     vdW  Elec       q    Type
REMARK                         _______ _______ _______ _____ _____    ______ ____
ROOT
ATOM      1  C   UNL     1       3.078  -0.524  -1.125  0.00  0.00    +0.000 A 
ATOM      2  C   UNL     1       2.825  -0.203  -2.449  0.00  0.00    +0.000 A 
ATOM      3  N   UNL     1       3.713  -0.882  -3.227  0.00  0.00    +0.000 N 
ATOM      4  C   UNL     1       4.618  -1.558  -2.443  0.00  0.00    +0.000 A 
ATOM      5  C   UNL     1       5.740  -2.315  -2.809  0.00  0.00    +0.000 A 
ATOM      6  C   UNL     1       6.370  -3.072  -1.816  0.00  0.00    +0.000 A 
ATOM      7  C   UNL     1       5.934  -3.006  -0.493  0.00  0.00    +0.000 A 
ATOM      8  C   UNL     1       4.867  -2.171  -0.129  0.00  0.00    +0.000 A 
ATOM      9  C   UNL     1       4.185  -1.435  -1.122  0.00  0.00    +0.000 A 
ATOM     10  C   UNL     1       6.237  -2.323  -4.208  0.00  0.00    +0.000 C 
ATOM     11  O   UNL     1       6.767  -3.325  -4.677  0.00  0.00    +0.000 OA
ATOM     12  N   UNL     1       6.207  -1.115  -4.885  0.00  0.00    +0.000 N 
ATOM     13  C   UNL     1       4.949  -0.511  -5.330  0.00  0.00    +0.000 C 
ATOM     14  C   UNL     1       3.671  -1.021  -4.670  0.00  0.00    +0.000 C 
ATOM     15  H   UNL     1       6.777  -0.431  -4.409  0.00  0.00    +0.000 HD
ENDROOT
BRANCH   1  17
ATOM     16  N   UNL     1       1.346   0.777  -0.163  0.00  0.00    +0.000 NA
ATOM     17  C   UNL     1       2.334  -0.035   0.013  0.00  0.00    +0.000 C 
ATOM     18  H   UNL     1       0.938   1.021   0.745  0.00  0.00    +0.000 HD
ENDBRANCH   1  17
TORSDOF 1
