MODEL 1
REMARK VINA RESULT:      -7.8      0.000      0.000
REMARK  Name = 
REMARK  1 active torsions:
REMARK  status: ('A' for Active; 'I' for Inactive)
REMARK    1  A    between atoms: C_2  and  C_3
REMARK                            x       y       z     vdW  Elec       q    Type
REMARK                         _______ _______ _______ _____ _____    ______ ____
ROOT
ATOM      1  C   UNL     1      23.591  10.514  23.661  0.00  0.00    +0.000 A 
ATOM      2  C   UNL     1      24.424  11.602  23.862  0.00  0.00    +0.000 A 
ATOM      3  N   UNL     1      25.289  11.294  24.868  0.00  0.00    +0.000 N 
ATOM      4  C   UNL     1      24.975  10.070  25.411  0.00  0.00    +0.000 A 
ATOM      5  C   UNL     1      25.540   9.397  26.504  0.00  0.00    +0.000 A 
ATOM      6  C   UNL     1      25.168   8.066  26.714  0.00  0.00    +0.000 A 
ATOM      7  C   UNL     1      24.207   7.463  25.903  0.00  0.00    +0.000 A 
ATOM      8  C   UNL     1      23.585   8.182  24.871  0.00  0.00    +0.000 A 
ATOM      9  C   UNL     1      23.979   9.512  24.610  0.00  0.00    +0.000 A 
ATOM     10  C   UNL     1      26.511  10.072  27.402  0.00  0.00    +0.000 C 
ATOM     11  O   UNL     1      27.410   9.435  27.941  0.00  0.00    +0.000 OA
ATOM     12  N   UNL     1      26.254  11.398  27.710  0.00  0.00    +0.000 N 
ATOM     13  C   UNL     1      26.420  12.466  26.722  0.00  0.00    +0.000 C 
ATOM     14  C   UNL     1      26.469  12.043  25.256  0.00  0.00    +0.000 C 
ATOM     15  H   UNL     1      25.363  11.484  28.177  0.00  0.00    +0.000 HD
ENDROOT
BRANCH   1  17
ATOM     16  N   UNL     1      22.683   9.617  21.663  0.00  0.00    +0.000 NA
ATOM     17  C   UNL     1      22.552  10.427  22.660  0.00  0.00    +0.000 C 
ATOM     18  H   UNL     1      21.860   9.687  21.056  0.00  0.00    +0.000 HD
ENDBRANCH   1  17
TORSDOF 1
ENDMDL
MODEL 2
REMARK VINA RESULT:      -6.8      1.929      2.608
REMARK  Name = 
REMARK  1 active torsions:
REMARK  status: ('A' for Active; 'I' for Inactive)
REMARK    1  A    between atoms: C_2  and  C_3
REMARK                            x       y       z     vdW  Elec       q    Type
REMARK                         _______ _______ _______ _____ _____    ______ ____
ROOT
ATOM      1  C   UNL     1      24.567  11.736  24.434  0.00  0.00    +0.000 A 
ATOM      2  C   UNL     1      24.915  13.077  24.454  0.00  0.00    +0.000 A 
ATOM      3  N   UNL     1      25.754  13.282  25.507  0.00  0.00    +0.000 N 
ATOM      4  C   UNL     1      25.881  12.132  26.249  0.00  0.00    +0.000 A 
ATOM      5  C   UNL     1      26.573  11.903  27.447  0.00  0.00    +0.000 A 
ATOM      6  C   UNL     1      26.712  10.580  27.879  0.00  0.00    +0.000 A 
ATOM      7  C   UNL     1      26.110   9.539  27.174  0.00  0.00    +0.000 A 
ATOM      8  C   UNL     1      25.343   9.796  26.028  0.00  0.00    +0.000 A 
ATOM      9  C   UNL     1      25.229  11.118  25.545  0.00  0.00    +0.000 A 
ATOM     10  C   UNL     1      27.151  13.027  28.226  0.00  0.00    +0.000 C 
ATOM     11  O   UNL     1      28.180  12.874  28.875  0.00  0.00    +0.000 OA
ATOM     12  N   UNL     1      26.395  14.186  28.299  0.00  0.00    +0.000 N 
ATOM     13  C   UNL     1      26.222  15.069  27.143  0.00  0.00    +0.000 C 
ATOM     14  C   UNL     1      26.535  14.475  25.773  0.00  0.00    +0.000 C 
ATOM     15  H   UNL     1      25.503  13.997  28.734  0.00  0.00    +0.000 HD
ENDROOT
BRANCH   1  17
ATOM     16  N   UNL     1      23.126  11.822  22.554  0.00  0.00    +0.000 NA
ATOM     17  C   UNL     1      23.714  11.106  23.453  0.00  0.00    +0.000 C 
ATOM     18  H   UNL     1      22.564  11.217  21.948  0.00  0.00    +0.000 HD
ENDBRANCH   1  17
TORSDOF 1
ENDMDL
MODEL 3
REMARK VINA RESULT:      -6.7      7.751     10.483
REMARK  Name = 
REMARK  1 active torsions:
REMARK  status: ('A' for Active; 'I' for Inactive)
REMARK    1  A    between atoms: C_2  and  C_3
REMARK                            x       y       z     vdW  Elec       q    Type
REMARK                         _______ _______ _______ _____ _____    ______ ____
ROOT
ATOM      1  C   UNL     1      31.912  18.406  24.324  0.00  0.00    +0.000 A 
ATOM      2  C   UNL     1      31.877  17.159  24.927  0.00  0.00    +0.000 A 
ATOM      3  N   UNL     1      31.243  16.298  24.085  0.00  0.00    +0.000 N 
ATOM      4  C   UNL     1      30.760  16.970  22.987  0.00  0.00    +0.000 A 
ATOM      5  C   UNL     1      29.986  16.506  21.914  0.00  0.00    +0.000 A 
ATOM      6  C   UNL     1      29.808  17.358  20.819  0.00  0.00    +0.000 A 
ATOM      7  C   UNL     1      30.324  18.653  20.840  0.00  0.00    +0.000 A 
ATOM      8  C   UNL     1      31.017  19.132  21.962  0.00  0.00    +0.000 A 
ATOM      9  C   UNL     1      31.250  18.274  23.059  0.00  0.00    +0.000 A 
ATOM     10  C   UNL     1      29.383  15.149  21.933  0.00  0.00    +0.000 C 
ATOM     11  O   UNL     1      29.235  14.516  20.892  0.00  0.00    +0.000 OA
ATOM     12  N   UNL     1      28.871  14.713  23.143  0.00  0.00    +0.000 N 
ATOM     13  C   UNL     1      29.742  14.348  24.263  0.00  0.00    +0.000 C 
ATOM     14  C   UNL     1      31.180  14.854  24.208  0.00  0.00    +0.000 C 
ATOM     15  H   UNL     1      28.135  15.330  23.456  0.00  0.00    +0.000 HD
ENDROOT
BRANCH   1  17
ATOM     16  N   UNL     1      33.527  19.478  25.687  0.00  0.00    +0.000 NA
ATOM     17  C   UNL     1      32.526  19.590  24.880  0.00  0.00    +0.000 C 
ATOM     18  H   UNL     1      33.833  20.411  25.983  0.00  0.00    +0.000 HD
ENDBRANCH   1  17
TORSDOF 1
ENDMDL
MODEL 4
REMARK VINA RESULT:      -6.6      7.976     10.435
REMARK  Name = 
REMARK  1 active torsions:
REMARK  status: ('A' for Active; 'I' for Inactive)
REMARK    1  A    between atoms: C_2  and  C_3
REMARK                            x       y       z     vdW  Elec       q    Type
REMARK                         _______ _______ _______ _____ _____    ______ ____
ROOT
ATOM      1  C   UNL     1      32.006  17.544  24.490  0.00  0.00    +0.000 A 
ATOM      2  C   UNL     1      31.079  17.013  25.373  0.00  0.00    +0.000 A 
ATOM      3  N   UNL     1      29.872  16.966  24.743  0.00  0.00    +0.000 N 
ATOM      4  C   UNL     1      29.955  17.555  23.503  0.00  0.00    +0.000 A 
ATOM      5  C   UNL     1      28.955  17.799  22.551  0.00  0.00    +0.000 A 
ATOM      6  C   UNL     1      29.352  18.226  21.280  0.00  0.00    +0.000 A 
ATOM      7  C   UNL     1      30.697  18.474  21.006  0.00  0.00    +0.000 A 
ATOM      8  C   UNL     1      31.674  18.314  21.999  0.00  0.00    +0.000 A 
ATOM      9  C   UNL     1      31.303  17.837  23.275  0.00  0.00    +0.000 A 
ATOM     10  C   UNL     1      27.521  17.597  22.877  0.00  0.00    +0.000 C 
ATOM     11  O   UNL     1      26.729  17.232  22.014  0.00  0.00    +0.000 OA
ATOM     12  N   UNL     1      27.111  17.984  24.143  0.00  0.00    +0.000 N 
ATOM     13  C   UNL     1      27.493  17.233  25.341  0.00  0.00    +0.000 C 
ATOM     14  C   UNL     1      28.680  16.283  25.206  0.00  0.00    +0.000 C 
ATOM     15  H   UNL     1      27.274  18.971  24.279  0.00  0.00    +0.000 HD
ENDROOT
BRANCH   1  17
ATOM     16  N   UNL     1      33.788  18.238  25.890  0.00  0.00    +0.000 NA
ATOM     17  C   UNL     1      33.412  17.732  24.763  0.00  0.00    +0.000 C 
ATOM     18  H   UNL     1      34.810  18.301  25.913  0.00  0.00    +0.000 HD
ENDBRANCH   1  17
TORSDOF 1
ENDMDL
MODEL 5
REMARK VINA RESULT:      -6.5      6.761      8.919
REMARK  Name = 
REMARK  1 active torsions:
REMARK  status: ('A' for Active; 'I' for Inactive)
REMARK    1  A    between atoms: C_2  and  C_3
REMARK                            x       y       z     vdW  Elec       q    Type
REMARK                         _______ _______ _______ _____ _____    ______ ____
ROOT
ATOM      1  C   UNL     1      29.257  13.999  23.537  0.00  0.00    +0.000 A 
ATOM      2  C   UNL     1      28.339  14.723  22.792  0.00  0.00    +0.000 A 
ATOM      3  N   UNL     1      28.868  15.954  22.548  0.00  0.00    +0.000 N 
ATOM      4  C   UNL     1      30.067  16.100  23.206  0.00  0.00    +0.000 A 
ATOM      5  C   UNL     1      30.913  17.214  23.302  0.00  0.00    +0.000 A 
ATOM      6  C   UNL     1      32.180  17.025  23.864  0.00  0.00    +0.000 A 
ATOM      7  C   UNL     1      32.547  15.783  24.379  0.00  0.00    +0.000 A 
ATOM      8  C   UNL     1      31.652  14.703  24.358  0.00  0.00    +0.000 A 
ATOM      9  C   UNL     1      30.386  14.856  23.752  0.00  0.00    +0.000 A 
ATOM     10  C   UNL     1      30.484  18.548  22.813  0.00  0.00    +0.000 C 
ATOM     11  O   UNL     1      31.302  19.336  22.348  0.00  0.00    +0.000 OA
ATOM     12  N   UNL     1      29.165  18.901  23.047  0.00  0.00    +0.000 N 
ATOM     13  C   UNL     1      28.058  18.274  22.322  0.00  0.00    +0.000 C 
ATOM     14  C   UNL     1      28.357  16.949  21.625  0.00  0.00    +0.000 C 
ATOM     15  H   UNL     1      28.975  18.913  24.038  0.00  0.00    +0.000 HD
ENDROOT
BRANCH   1  17
ATOM     16  N   UNL     1      29.454  11.660  23.211  0.00  0.00    +0.000 NA
ATOM     17  C   UNL     1      29.089  12.634  23.976  0.00  0.00    +0.000 C 
ATOM     18  H   UNL     1      29.260  10.768  23.678  0.00  0.00    +0.000 HD
ENDBRANCH   1  17
TORSDOF 1
ENDMDL
MODEL 6
REMARK VINA RESULT:      -6.1      6.358      8.671
REMARK  Name = 
REMARK  1 active torsions:
REMARK  status: ('A' for Active; 'I' for Inactive)
REMARK    1  A    between atoms: C_2  and  C_3
REMARK                            x       y       z     vdW  Elec       q    Type
REMARK                         _______ _______ _______ _____ _____    ______ ____
ROOT
ATOM      1  C   UNL     1      30.603  17.674  23.298  0.00  0.00    +0.000 A 
ATOM      2  C   UNL     1      30.252  17.220  22.037  0.00  0.00    +0.000 A 
ATOM      3  N   UNL     1      29.773  15.951  22.161  0.00  0.00    +0.000 N 
ATOM      4  C   UNL     1      29.903  15.515  23.458  0.00  0.00    +0.000 A 
ATOM      5  C   UNL     1      29.618  14.263  24.021  0.00  0.00    +0.000 A 
ATOM      6  C   UNL     1      29.644  14.152  25.415  0.00  0.00    +0.000 A 
ATOM      7  C   UNL     1      30.021  15.238  26.204  0.00  0.00    +0.000 A 
ATOM      8  C   UNL     1      30.393  16.457  25.618  0.00  0.00    +0.000 A 
ATOM      9  C   UNL     1      30.326  16.608  24.216  0.00  0.00    +0.000 A 
ATOM     10  C   UNL     1      29.286  13.095  23.167  0.00  0.00    +0.000 C 
ATOM     11  O   UNL     1      28.509  12.232  23.563  0.00  0.00    +0.000 OA
ATOM     12  N   UNL     1      30.005  12.961  21.991  0.00  0.00    +0.000 N 
ATOM     13  C   UNL     1      29.796  13.859  20.853  0.00  0.00    +0.000 C 
ATOM     14  C   UNL     1      29.088  15.180  21.141  0.00  0.00    +0.000 C 
ATOM     15  H   UNL     1      30.990  12.868  22.190  0.00  0.00    +0.000 HD
ENDROOT
BRANCH   1  17
ATOM     16  N   UNL     1      31.278  19.854  22.658  0.00  0.00    +0.000 NA
ATOM     17  C   UNL     1      31.125  18.987  23.602  0.00  0.00    +0.000 C 
ATOM     18  H   UNL     1      31.657  20.722  23.049  0.00  0.00    +0.000 HD
ENDBRANCH   1  17
TORSDOF 1
ENDMDL
MODEL 7
REMARK VINA RESULT:      -6.1      6.885      8.718
REMARK  Name = 
REMARK  1 active torsions:
REMARK  status: ('A' for Active; 'I' for Inactive)
REMARK    1  A    between atoms: C_2  and  C_3
REMARK                            x       y       z     vdW  Elec       q    Type
REMARK                         _______ _______ _______ _____ _____    ______ ____
ROOT
ATOM      1  C   UNL     1      29.760  17.798  22.051  0.00  0.00    +0.000 A 
ATOM      2  C   UNL     1      30.163  16.502  21.770  0.00  0.00    +0.000 A 
ATOM      3  N   UNL     1      29.836  15.717  22.834  0.00  0.00    +0.000 N 
ATOM      4  C   UNL     1      29.327  16.483  23.856  0.00  0.00    +0.000 A 
ATOM      5  C   UNL     1      28.936  16.114  25.151  0.00  0.00    +0.000 A 
ATOM      6  C   UNL     1      28.254  17.060  25.923  0.00  0.00    +0.000 A 
ATOM      7  C   UNL     1      28.044  18.351  25.437  0.00  0.00    +0.000 A 
ATOM      8  C   UNL     1      28.524  18.730  24.174  0.00  0.00    +0.000 A 
ATOM      9  C   UNL     1      29.173  17.778  23.359  0.00  0.00    +0.000 A 
ATOM     10  C   UNL     1      29.226  14.759  25.683  0.00  0.00    +0.000 C 
ATOM     11  O   UNL     1      28.459  14.222  26.476  0.00  0.00    +0.000 OA
ATOM     12  N   UNL     1      30.458  14.214  25.359  0.00  0.00    +0.000 N 
ATOM     13  C   UNL     1      30.765  13.753  24.003  0.00  0.00    +0.000 C 
ATOM     14  C   UNL     1      29.866  14.268  22.883  0.00  0.00    +0.000 C 
ATOM     15  H   UNL     1      31.203  14.798  25.710  0.00  0.00    +0.000 HD
ENDROOT
BRANCH   1  17
ATOM     16  N   UNL     1      30.913  19.720  21.279  0.00  0.00    +0.000 NA
ATOM     17  C   UNL     1      29.899  18.930  21.163  0.00  0.00    +0.000 C 
ATOM     18  H   UNL     1      30.850  20.463  20.576  0.00  0.00    +0.000 HD
ENDBRANCH   1  17
TORSDOF 1
ENDMDL
MODEL 8
REMARK VINA RESULT:      -5.9      5.465      6.955
REMARK  Name = 
REMARK  1 active torsions:
REMARK  status: ('A' for Active; 'I' for Inactive)
REMARK    1  A    between atoms: C_2  and  C_3
REMARK                            x       y       z     vdW  Elec       q    Type
REMARK                         _______ _______ _______ _____ _____    ______ ____
ROOT
ATOM      1  C   UNL     1      27.138  13.565  28.276  0.00  0.00    +0.000 A 
ATOM      2  C   UNL     1      27.530  13.821  26.972  0.00  0.00    +0.000 A 
ATOM      3  N   UNL     1      26.717  14.790  26.467  0.00  0.00    +0.000 N 
ATOM      4  C   UNL     1      25.726  15.101  27.368  0.00  0.00    +0.000 A 
ATOM      5  C   UNL     1      24.636  15.975  27.245  0.00  0.00    +0.000 A 
ATOM      6  C   UNL     1      23.896  16.264  28.396  0.00  0.00    +0.000 A 
ATOM      7  C   UNL     1      24.195  15.636  29.605  0.00  0.00    +0.000 A 
ATOM      8  C   UNL     1      25.231  14.694  29.688  0.00  0.00    +0.000 A 
ATOM      9  C   UNL     1      26.022  14.423  28.551  0.00  0.00    +0.000 A 
ATOM     10  C   UNL     1      24.285  16.583  25.937  0.00  0.00    +0.000 C 
ATOM     11  O   UNL     1      23.791  17.705  25.882  0.00  0.00    +0.000 OA
ATOM     12  N   UNL     1      24.403  15.770  24.821  0.00  0.00    +0.000 N 
ATOM     13  C   UNL     1      25.709  15.372  24.292  0.00  0.00    +0.000 C 
ATOM     14  C   UNL     1      26.905  15.520  25.228  0.00  0.00    +0.000 C 
ATOM     15  H   UNL     1      23.797  14.967  24.907  0.00  0.00    +0.000 HD
ENDROOT
BRANCH   1  17
ATOM     16  N   UNL     1      27.239  11.459  29.360  0.00  0.00    +0.000 NA
ATOM     17  C   UNL     1      27.768  12.622  29.171  0.00  0.00    +0.000 C 
ATOM     18  H   UNL     1      27.813  10.926  30.021  0.00  0.00    +0.000 HD
ENDBRANCH   1  17
TORSDOF 1
ENDMDL
MODEL 9
REMARK VINA RESULT:      -5.7      4.424      6.416
REMARK  Name = 
REMARK  1 active torsions:
REMARK  status: ('A' for Active; 'I' for Inactive)
REMARK    1  A    between atoms: C_2  and  C_3
REMARK                            x       y       z     vdW  Elec       q    Type
REMARK                         _______ _______ _______ _____ _____    ______ ____
ROOT
ATOM      1  C   UNL     1      28.661  14.025  28.571  0.00  0.00    +0.000 A 
ATOM      2  C   UNL     1      29.444  14.794  27.725  0.00  0.00    +0.000 A 
ATOM      3  N   UNL     1      29.398  14.238  26.483  0.00  0.00    +0.000 N 
ATOM      4  C   UNL     1      28.694  13.057  26.512  0.00  0.00    +0.000 A 
ATOM      5  C   UNL     1      28.461  12.120  25.495  0.00  0.00    +0.000 A 
ATOM      6  C   UNL     1      27.531  11.106  25.742  0.00  0.00    +0.000 A 
ATOM      7  C   UNL     1      26.920  10.995  26.990  0.00  0.00    +0.000 A 
ATOM      8  C   UNL     1      27.234  11.887  28.026  0.00  0.00    +0.000 A 
ATOM      9  C   UNL     1      28.134  12.948  27.786  0.00  0.00    +0.000 A 
ATOM     10  C   UNL     1      29.170  12.208  24.194  0.00  0.00    +0.000 C 
ATOM     11  O   UNL     1      28.625  11.840  23.159  0.00  0.00    +0.000 OA
ATOM     12  N   UNL     1      30.504  12.578  24.237  0.00  0.00    +0.000 N 
ATOM     13  C   UNL     1      30.916  13.946  24.559  0.00  0.00    +0.000 C 
ATOM     14  C   UNL     1      29.881  14.830  25.250  0.00  0.00    +0.000 C 
ATOM     15  H   UNL     1      31.036  11.913  24.779  0.00  0.00    +0.000 HD
ENDROOT
BRANCH   1  17
ATOM     16  N   UNL     1      27.636  15.260  30.315  0.00  0.00    +0.000 NA
ATOM     17  C   UNL     1      28.423  14.297  29.970  0.00  0.00    +0.000 C 
ATOM     18  H   UNL     1      27.585  15.310  31.338  0.00  0.00    +0.000 HD
ENDBRANCH   1  17
TORSDOF 1
ENDMDL
MODEL 10
REMARK VINA RESULT:      -5.7      4.344      6.655
REMARK  Name = 
REMARK  1 active torsions:
REMARK  status: ('A' for Active; 'I' for Inactive)
REMARK    1  A    between atoms: C_2  and  C_3
REMARK                            x       y       z     vdW  Elec       q    Type
REMARK                         _______ _______ _______ _____ _____    ______ ____
ROOT
ATOM      1  C   UNL     1      28.144  16.857  24.713  0.00  0.00    +0.000 A 
ATOM      2  C   UNL     1      29.036  15.966  24.136  0.00  0.00    +0.000 A 
ATOM      3  N   UNL     1      28.405  14.768  23.992  0.00  0.00    +0.000 N 
ATOM      4  C   UNL     1      27.154  14.813  24.561  0.00  0.00    +0.000 A 
ATOM      5  C   UNL     1      26.195  13.802  24.714  0.00  0.00    +0.000 A 
ATOM      6  C   UNL     1      24.917  14.172  25.142  0.00  0.00    +0.000 A 
ATOM      7  C   UNL     1      24.640  15.497  25.479  0.00  0.00    +0.000 A 
ATOM      8  C   UNL     1      25.638  16.480  25.407  0.00  0.00    +0.000 A 
ATOM      9  C   UNL     1      26.922  16.139  24.931  0.00  0.00    +0.000 A 
ATOM     10  C   UNL     1      26.523  12.384  24.419  0.00  0.00    +0.000 C 
ATOM     11  O   UNL     1      25.665  11.623  23.982  0.00  0.00    +0.000 OA
ATOM     12  N   UNL     1      27.779  11.944  24.801  0.00  0.00    +0.000 N 
ATOM     13  C   UNL     1      28.993  12.374  24.103  0.00  0.00    +0.000 C 
ATOM     14  C   UNL     1      28.879  13.625  23.236  0.00  0.00    +0.000 C 
ATOM     15  H   UNL     1      27.895  12.036  25.799  0.00  0.00    +0.000 HD
ENDROOT
BRANCH   1  17
ATOM     16  N   UNL     1      28.040  19.164  24.179  0.00  0.00    +0.000 NA
ATOM     17  C   UNL     1      28.416  18.245  25.005  0.00  0.00    +0.000 C 
ATOM     18  H   UNL     1      28.315  20.082  24.541  0.00  0.00    +0.000 HD
ENDBRANCH   1  17
TORSDOF 1
ENDMDL
