REMARK  Name = 
REMARK  5 active torsions:
REMARK  status: ('A' for Active; 'I' for Inactive)
REMARK    1  A    between atoms: C_1  and  O_2
REMARK    2  A    between atoms: O_2  and  C_3
REMARK    3  A    between atoms: C_3  and  C_5
REMARK    4  A    between atoms: C_5  and  C_6
REMARK    5  A    between atoms: C_6  and  C_7
REMARK                            x       y       z     vdW  Elec       q    Type
REMARK                         _______ _______ _______ _____ _____    ______ ____
ROOT
ATOM      1  C   UNL     1       5.195   0.948  -2.522  0.00  0.00    +0.000 C 
ATOM      2  C   UNL     1       4.443   2.320  -2.487  0.00  0.00    +0.000 C 
ATOM      3  N   UNL     1       4.931   0.174  -3.799  0.00  0.00    +0.000 N 
ATOM      4  C   UNL     1       4.874   0.987  -4.961  0.00  0.00    +0.000 A 
ATOM      5  C   UNL     1       3.664   0.943  -5.665  0.00  0.00    +0.000 A 
ATOM      6  C   UNL     1       3.256   2.046  -6.401  0.00  0.00    +0.000 A 
ATOM      7  C   UNL     1       4.071   3.171  -6.440  0.00  0.00    +0.000 A 
ATOM      8  C   UNL     1       5.377   3.108  -5.937  0.00  0.00    +0.000 A 
ATOM      9  C   UNL     1       5.846   1.964  -5.271  0.00  0.00    +0.000 A 
ATOM     10  C   UNL     1       7.238   1.885  -4.798  0.00  0.00    +0.000 A 
ATOM     11  C   UNL     1       8.359   2.040  -5.625  0.00  0.00    +0.000 A 
ATOM     12  C   UNL     1       9.636   1.945  -5.071  0.00  0.00    +0.000 A 
ATOM     13  N   UNL     1       9.925   1.750  -3.757  0.00  0.00    +0.000 NA
ATOM     14  C   UNL     1       8.816   1.585  -3.009  0.00  0.00    +0.000 A 
ATOM     15  N   UNL     1       8.800   1.359  -1.660  0.00  0.00    +0.000 N 
ATOM     16  C   UNL     1       7.505   1.155  -1.235  0.00  0.00    +0.000 A 
ATOM     17  C   UNL     1       6.678   1.223  -2.340  0.00  0.00    +0.000 A 
ATOM     18  C   UNL     1       7.505   1.597  -3.445  0.00  0.00    +0.000 A 
ATOM     19  H   UNL     1       5.723  -0.470  -3.903  0.00  0.00    +0.000 HD
ATOM     20  H   UNL     1       9.632   1.322  -1.097  0.00  0.00    +0.000 HD
ENDROOT
BRANCH   1  21
ATOM     21  C   UNL     1       4.566   0.136  -1.374  0.00  0.00    +0.000 C 
BRANCH  21  22
ATOM     22  C   UNL     1       5.072  -1.274  -1.251  0.00  0.00    +0.000 C 
ATOM     23  O   UNL     1       5.939  -1.803  -1.927  0.00  0.00    +0.000 OA
BRANCH  22  25
ATOM     24  C   UNL     1       4.739  -3.260  -0.060  0.00  0.00    +0.000 C 
ATOM     25  O   UNL     1       4.390  -1.892  -0.232  0.00  0.00    +0.000 OA
ENDBRANCH  22  25
ENDBRANCH  21  22
ENDBRANCH   1  21
TORSDOF 3
