REMARK  Name = 
REMARK  2 active torsions:
REMARK  status: ('A' for Active; 'I' for Inactive)
REMARK    1  A    between atoms: C_1  and  C_2
REMARK    2  A    between atoms: C_2  and  C_3
REMARK                            x       y       z     vdW  Elec       q    Type
REMARK                         _______ _______ _______ _____ _____    ______ ____
ROOT
ATOM      1  C   UNL     1       3.106   0.881  -1.093  0.00  0.00    +0.000 A 
ATOM      2  C   UNL     1       2.726   2.223  -1.221  0.00  0.00    +0.000 A 
ATOM      3  C   UNL     1       3.057   2.950  -2.368  0.00  0.00    +0.000 A 
ATOM      4  C   UNL     1       3.753   2.325  -3.414  0.00  0.00    +0.000 A 
ATOM      5  C   UNL     1       4.206   1.002  -3.268  0.00  0.00    +0.000 A 
ATOM      6  C   UNL     1       3.870   0.291  -2.110  0.00  0.00    +0.000 A 
ATOM      7  C   UNL     1       5.037   0.352  -4.331  0.00  0.00    +0.000 C 
ATOM      8  N   UNL     1       4.218   0.096  -5.476  0.00  0.00    +0.000 N 
ATOM      9  C   UNL     1       3.676   1.066  -6.273  0.00  0.00    +0.000 C 
ATOM     10  O   UNL     1       3.044   0.716  -7.268  0.00  0.00    +0.000 OA
ATOM     11  C   UNL     1       3.914   2.451  -5.925  0.00  0.00    +0.000 A 
ATOM     12  C   UNL     1       4.041   3.491  -6.835  0.00  0.00    +0.000 A 
ATOM     13  C   UNL     1       4.195   4.694  -6.120  0.00  0.00    +0.000 A 
ATOM     14  C   UNL     1       4.098   4.380  -4.785  0.00  0.00    +0.000 A 
ATOM     15  N   UNL     1       3.935   3.013  -4.650  0.00  0.00    +0.000 N 
ATOM     16  H   UNL     1       4.000  -0.851  -5.747  0.00  0.00    +0.000 HD
ENDROOT
BRANCH   1  18
ATOM     17  C   UNL     1       1.315  -0.637  -0.233  0.00  0.00    +0.000 C 
ATOM     18  C   UNL     1       2.637   0.055   0.077  0.00  0.00    +0.000 C 
ENDBRANCH   1  18
TORSDOF 1
