REMARK  Name = 
REMARK  3 active torsions:
REMARK  status: ('A' for Active; 'I' for Inactive)
REMARK    1  A    between atoms: C_7  and  C_8
REMARK    2  A    between atoms: C_8  and  C_9
REMARK    3  A    between atoms: C_9  and  C_10
REMARK                            x       y       z     vdW  Elec       q    Type
REMARK                         _______ _______ _______ _____ _____    ______ ____
ROOT
ATOM      1  O   UNL     1       1.485  -0.918   0.558  0.00  0.00    +0.000 OA
ATOM      2  C   UNL     1       2.480  -0.321   0.152  0.00  0.00    +0.000 C 
ATOM      3  N   UNL     1       2.960   0.725   0.890  0.00  0.00    +0.000 N 
ATOM      4  C   UNL     1       4.141   1.468   0.573  0.00  0.00    +0.000 C 
ATOM      5  C   UNL     1       3.919   2.242  -0.691  0.00  0.00    +0.000 A 
ATOM      6  C   UNL     1       3.810   3.641  -0.648  0.00  0.00    +0.000 A 
ATOM      7  C   UNL     1       3.606   4.393  -1.817  0.00  0.00    +0.000 A 
ATOM      8  C   UNL     1       3.598   3.723  -3.044  0.00  0.00    +0.000 A 
ATOM      9  C   UNL     1       3.704   2.329  -3.104  0.00  0.00    +0.000 A 
ATOM     10  C   UNL     1       3.817   1.585  -1.926  0.00  0.00    +0.000 A 
ATOM     11  N   UNL     1       3.779   0.161  -1.982  0.00  0.00    +0.000 N 
ATOM     12  C   UNL     1       4.268  -0.608  -3.024  0.00  0.00    +0.000 A 
ATOM     13  C   UNL     1       4.023  -1.935  -2.761  0.00  0.00    +0.000 A 
ATOM     14  C   UNL     1       3.318  -1.985  -1.543  0.00  0.00    +0.000 A 
ATOM     15  C   UNL     1       3.197  -0.694  -1.049  0.00  0.00    +0.000 A 
ATOM     16  H   UNL     1       2.406   0.963   1.701  0.00  0.00    +0.000 HD
ENDROOT
BRANCH   7  17
ATOM     17  C   UNL     1       3.448   5.893  -1.698  0.00  0.00    +0.000 C 
BRANCH  17  18
ATOM     18  C   UNL     1       2.509   6.534  -2.729  0.00  0.00    +0.000 C 
BRANCH  18  19
ATOM     19  C   UNL     1       2.364   8.019  -2.503  0.00  0.00    +0.000 A 
ATOM     20  C   UNL     1       3.247   8.916  -3.118  0.00  0.00    +0.000 A 
ATOM     21  C   UNL     1       3.129  10.289  -2.896  0.00  0.00    +0.000 A 
ATOM     22  C   UNL     1       2.130  10.776  -2.055  0.00  0.00    +0.000 A 
ATOM     23  C   UNL     1       1.248   9.891  -1.437  0.00  0.00    +0.000 A 
ATOM     24  C   UNL     1       1.364   8.518  -1.657  0.00  0.00    +0.000 A 
ENDBRANCH  18  19
ENDBRANCH  17  18
ENDBRANCH   7  17
TORSDOF 3
