REMARK  Name = 
REMARK  7 active torsions:
REMARK  status: ('A' for Active; 'I' for Inactive)
REMARK    1  A    between atoms: N_1  and  C_2
REMARK    2  A    between atoms: C_2  and  C_3
REMARK    3  A    between atoms: C_2  and  C_10
REMARK    4  A    between atoms: C_3  and  C_4
REMARK    5  A    between atoms: C_17  and  C_18
REMARK    6  A    between atoms: C_23  and  C_25
REMARK    7  A    between atoms: C_25  and  N_26
REMARK                            x       y       z     vdW  Elec       q    Type
REMARK                         _______ _______ _______ _____ _____    ______ ____
ROOT
ATOM      1  C   UNL     1       3.101  -1.283  -1.166  0.00  0.00    +0.000 C 
ATOM      2  O   UNL     1       2.758  -1.140   0.012  0.00  0.00    +0.000 OA
ATOM      3  N   UNL     1       4.463  -1.208  -1.545  0.00  0.00    +0.000 N 
ATOM      4  C   UNL     1       4.937  -1.363  -2.915  0.00  0.00    +0.000 C 
ATOM      5  C   UNL     1       5.456  -2.771  -3.181  0.00  0.00    +0.000 C 
ATOM      6  C   UNL     1       6.359  -3.321  -2.083  0.00  0.00    +0.000 C 
ATOM      7  C   UNL     1       6.012  -2.875  -0.658  0.00  0.00    +0.000 C 
ATOM      8  C   UNL     1       5.497  -1.432  -0.514  0.00  0.00    +0.000 C 
ENDROOT
BRANCH   8   9
ATOM      9  C   UNL     1       6.565  -0.290  -0.294  0.00  0.00    +0.000 C 
ATOM     10  C   UNL     1       5.843   1.044  -0.027  0.00  0.00    +0.000 C 
ATOM     11  C   UNL     1       6.889   2.113  -0.270  0.00  0.00    +0.000 C 
ATOM     12  C   UNL     1       7.835   1.502  -1.284  0.00  0.00    +0.000 C 
ATOM     13  N   UNL     1       7.567   0.069  -1.316  0.00  0.00    +0.000 N 
ATOM     14  C   UNL     1       8.641  -0.775  -1.615  0.00  0.00    +0.000 C 
ATOM     15  O   UNL     1       8.775  -1.873  -1.076  0.00  0.00    +0.000 OA
BRANCH  14  16
ATOM     16  C   UNL     1       9.656  -0.243  -2.664  0.00  0.00    +0.000 C 
BRANCH  16  17
ATOM     17  N   UNL     1      10.731  -1.193  -2.871  0.00  0.00    +0.000 N 
ATOM     18  C   UNL     1      10.814  -2.091  -3.990  0.00  0.00    +0.000 C 
ATOM     19  C   UNL     1      11.610  -3.254  -3.433  0.00  0.00    +0.000 C 
ATOM     20  C   UNL     1      12.509  -2.619  -2.374  0.00  0.00    +0.000 C 
ATOM     21  C   UNL     1      11.703  -1.431  -1.914  0.00  0.00    +0.000 C 
ATOM     22  O   UNL     1      11.895  -0.783  -0.899  0.00  0.00    +0.000 OA
ENDBRANCH  16  17
ENDBRANCH  14  16
ENDBRANCH   8   9
BRANCH   1  23
ATOM     23  C   UNL     1       2.038  -1.597  -2.264  0.00  0.00    +0.000 C 
BRANCH  23  24
ATOM     24  N   UNL     1       2.291  -2.964  -2.781  0.00  0.00    +0.000 NA
ATOM     25  H   UNL     1       1.503  -3.255  -3.358  0.00  0.00    +0.000 HD
ATOM     26  H   UNL     1       2.302  -3.608  -1.988  0.00  0.00    +0.000 HD
ENDBRANCH  23  24
BRANCH  23  27
ATOM     27  C   UNL     1       0.582  -1.510  -1.732  0.00  0.00    +0.000 C 
BRANCH  27  28
ATOM     28  C   UNL     1      -0.524  -1.775  -2.750  0.00  0.00    +0.000 A 
ATOM     29  C   UNL     1      -1.677  -2.477  -2.358  0.00  0.00    +0.000 A 
ATOM     30  C   UNL     1      -2.737  -2.680  -3.251  0.00  0.00    +0.000 A 
ATOM     31  C   UNL     1      -2.661  -2.183  -4.548  0.00  0.00    +0.000 A 
ATOM     32  C   UNL     1      -1.522  -1.492  -4.955  0.00  0.00    +0.000 A 
ATOM     33  C   UNL     1      -0.466  -1.286  -4.065  0.00  0.00    +0.000 A 
ENDBRANCH  27  28
ENDBRANCH  23  27
ENDBRANCH   1  23
TORSDOF 7
