MODEL 1
REMARK VINA RESULT:     -12.5      0.000      0.000
REMARK  Name = 
REMARK  3 active torsions:
REMARK  status: ('A' for Active; 'I' for Inactive)
REMARK    1  A    between atoms: C_8  and  C_9
REMARK    2  A    between atoms: C_9  and  C_10
REMARK    3  A    between atoms: C_10  and  C_11
REMARK                            x       y       z     vdW  Elec       q    Type
REMARK                         _______ _______ _______ _____ _____    ______ ____
ROOT
ATOM      1  C   UNL     1      28.756  12.315  25.567  0.00  0.00    +0.000 A 
ATOM      2  C   UNL     1      28.917  12.255  24.175  0.00  0.00    +0.000 A 
ATOM      3  C   UNL     1      29.318  13.386  23.452  0.00  0.00    +0.000 A 
ATOM      4  C   UNL     1      29.600  14.579  24.129  0.00  0.00    +0.000 A 
ATOM      5  C   UNL     1      29.390  14.669  25.518  0.00  0.00    +0.000 A 
ATOM      6  C   UNL     1      28.981  13.531  26.224  0.00  0.00    +0.000 A 
ATOM      7  C   UNL     1      29.614  15.964  26.244  0.00  0.00    +0.000 C 
ATOM      8  N   UNL     1      31.021  16.234  26.294  0.00  0.00    +0.000 N 
ATOM      9  C   UNL     1      31.798  16.479  25.194  0.00  0.00    +0.000 C 
ATOM     10  O   UNL     1      33.003  16.664  25.349  0.00  0.00    +0.000 OA
ATOM     11  C   UNL     1      31.135  16.552  23.912  0.00  0.00    +0.000 A 
ATOM     12  C   UNL     1      31.431  17.450  22.897  0.00  0.00    +0.000 A 
ATOM     13  C   UNL     1      30.581  17.178  21.806  0.00  0.00    +0.000 A 
ATOM     14  C   UNL     1      29.842  16.064  22.140  0.00  0.00    +0.000 A 
ATOM     15  N   UNL     1      30.159  15.685  23.430  0.00  0.00    +0.000 N 
ATOM     16  H   UNL     1      31.524  16.165  27.167  0.00  0.00    +0.000 HD
ENDROOT
BRANCH   1  17
ATOM     17  C   UNL     1      28.383  11.090  26.372  0.00  0.00    +0.000 C 
BRANCH  17  18
ATOM     18  C   UNL     1      26.976  11.205  26.969  0.00  0.00    +0.000 C 
BRANCH  18  26
ATOM     19  O   UNL     1      22.193  10.906  22.557  0.00  0.00    +0.000 OA
ATOM     20  C   UNL     1      22.597  10.050  23.334  0.00  0.00    +0.000 C 
ATOM     21  C   UNL     1      21.882   8.730  23.520  0.00  0.00    +0.000 C 
ATOM     22  C   UNL     1      22.877   7.617  23.802  0.00  0.00    +0.000 C 
ATOM     23  C   UNL     1      23.673   7.918  25.068  0.00  0.00    +0.000 C 
ATOM     24  C   UNL     1      24.277   9.298  25.041  0.00  0.00    +0.000 A 
ATOM     25  C   UNL     1      25.327   9.603  25.923  0.00  0.00    +0.000 A 
ATOM     26  C   UNL     1      25.887  10.889  25.967  0.00  0.00    +0.000 A 
ATOM     27  C   UNL     1      25.405  11.865  25.091  0.00  0.00    +0.000 A 
ATOM     28  C   UNL     1      24.357  11.584  24.214  0.00  0.00    +0.000 A 
ATOM     29  C   UNL     1      23.781  10.310  24.209  0.00  0.00    +0.000 A 
ENDBRANCH  18  26
ENDBRANCH  17  18
ENDBRANCH   1  17
TORSDOF 3
ENDMDL
MODEL 2
REMARK VINA RESULT:     -12.1      1.502      2.405
REMARK  Name = 
REMARK  3 active torsions:
REMARK  status: ('A' for Active; 'I' for Inactive)
REMARK    1  A    between atoms: C_8  and  C_9
REMARK    2  A    between atoms: C_9  and  C_10
REMARK    3  A    between atoms: C_10  and  C_11
REMARK                            x       y       z     vdW  Elec       q    Type
REMARK                         _______ _______ _______ _____ _____    ______ ____
ROOT
ATOM      1  C   UNL     1      28.839  12.891  25.676  0.00  0.00    +0.000 A 
ATOM      2  C   UNL     1      29.508  13.932  26.335  0.00  0.00    +0.000 A 
ATOM      3  C   UNL     1      30.176  14.926  25.608  0.00  0.00    +0.000 A 
ATOM      4  C   UNL     1      30.143  14.902  24.208  0.00  0.00    +0.000 A 
ATOM      5  C   UNL     1      29.523  13.834  23.534  0.00  0.00    +0.000 A 
ATOM      6  C   UNL     1      28.866  12.844  24.277  0.00  0.00    +0.000 A 
ATOM      7  C   UNL     1      29.548  13.755  22.035  0.00  0.00    +0.000 C 
ATOM      8  N   UNL     1      28.695  14.777  21.500  0.00  0.00    +0.000 N 
ATOM      9  C   UNL     1      28.921  16.120  21.638  0.00  0.00    +0.000 C 
ATOM     10  O   UNL     1      28.105  16.909  21.169  0.00  0.00    +0.000 OA
ATOM     11  C   UNL     1      30.143  16.526  22.294  0.00  0.00    +0.000 A 
ATOM     12  C   UNL     1      30.944  17.595  21.923  0.00  0.00    +0.000 A 
ATOM     13  C   UNL     1      32.023  17.673  22.827  0.00  0.00    +0.000 A 
ATOM     14  C   UNL     1      31.815  16.705  23.785  0.00  0.00    +0.000 A 
ATOM     15  N   UNL     1      30.680  15.987  23.460  0.00  0.00    +0.000 N 
ATOM     16  H   UNL     1      27.819  14.532  21.059  0.00  0.00    +0.000 HD
ENDROOT
BRANCH   1  17
ATOM     17  C   UNL     1      28.060  11.844  26.442  0.00  0.00    +0.000 C 
BRANCH  17  18
ATOM     18  C   UNL     1      26.616  12.286  26.707  0.00  0.00    +0.000 C 
BRANCH  18  26
ATOM     19  O   UNL     1      22.103  10.742  22.271  0.00  0.00    +0.000 OA
ATOM     20  C   UNL     1      22.625  10.046  23.133  0.00  0.00    +0.000 C 
ATOM     21  C   UNL     1      22.145   8.643  23.434  0.00  0.00    +0.000 C 
ATOM     22  C   UNL     1      23.309   7.754  23.837  0.00  0.00    +0.000 C 
ATOM     23  C   UNL     1      24.000   8.306  25.080  0.00  0.00    +0.000 C 
ATOM     24  C   UNL     1      24.354   9.763  24.930  0.00  0.00    +0.000 A 
ATOM     25  C   UNL     1      25.306  10.328  25.794  0.00  0.00    +0.000 A 
ATOM     26  C   UNL     1      25.632  11.692  25.723  0.00  0.00    +0.000 A 
ATOM     27  C   UNL     1      25.016  12.482  24.751  0.00  0.00    +0.000 A 
ATOM     28  C   UNL     1      24.061  11.941  23.889  0.00  0.00    +0.000 A 
ATOM     29  C   UNL     1      23.717  10.590  23.997  0.00  0.00    +0.000 A 
ENDBRANCH  18  26
ENDBRANCH  17  18
ENDBRANCH   1  17
TORSDOF 3
ENDMDL
MODEL 3
REMARK VINA RESULT:     -10.9      2.091      3.124
REMARK  Name = 
REMARK  3 active torsions:
REMARK  status: ('A' for Active; 'I' for Inactive)
REMARK    1  A    between atoms: C_8  and  C_9
REMARK    2  A    between atoms: C_9  and  C_10
REMARK    3  A    between atoms: C_10  and  C_11
REMARK                            x       y       z     vdW  Elec       q    Type
REMARK                         _______ _______ _______ _____ _____    ______ ____
ROOT
ATOM      1  C   UNL     1      27.266  14.994  25.644  0.00  0.00    +0.000 A 
ATOM      2  C   UNL     1      27.228  16.341  26.032  0.00  0.00    +0.000 A 
ATOM      3  C   UNL     1      28.154  17.259  25.519  0.00  0.00    +0.000 A 
ATOM      4  C   UNL     1      29.104  16.837  24.581  0.00  0.00    +0.000 A 
ATOM      5  C   UNL     1      29.189  15.478  24.225  0.00  0.00    +0.000 A 
ATOM      6  C   UNL     1      28.260  14.572  24.752  0.00  0.00    +0.000 A 
ATOM      7  C   UNL     1      30.253  14.999  23.279  0.00  0.00    +0.000 C 
ATOM      8  N   UNL     1      29.952  15.475  21.960  0.00  0.00    +0.000 N 
ATOM      9  C   UNL     1      29.940  16.795  21.601  0.00  0.00    +0.000 C 
ATOM     10  O   UNL     1      29.634  17.094  20.449  0.00  0.00    +0.000 OA
ATOM     11  C   UNL     1      30.337  17.761  22.600  0.00  0.00    +0.000 A 
ATOM     12  C   UNL     1      31.107  18.892  22.372  0.00  0.00    +0.000 A 
ATOM     13  C   UNL     1      31.248  19.583  23.592  0.00  0.00    +0.000 A 
ATOM     14  C   UNL     1      30.491  18.910  24.525  0.00  0.00    +0.000 A 
ATOM     15  N   UNL     1      29.945  17.786  23.935  0.00  0.00    +0.000 N 
ATOM     16  H   UNL     1      29.644  14.833  21.243  0.00  0.00    +0.000 HD
ENDROOT
BRANCH   1  17
ATOM     17  C   UNL     1      26.238  14.001  26.138  0.00  0.00    +0.000 C 
BRANCH  17  18
ATOM     18  C   UNL     1      26.870  12.646  26.480  0.00  0.00    +0.000 C 
BRANCH  18  26
ATOM     19  O   UNL     1      23.751   7.027  25.417  0.00  0.00    +0.000 OA
ATOM     20  C   UNL     1      23.713   8.076  24.786  0.00  0.00    +0.000 C 
ATOM     21  C   UNL     1      23.002   8.189  23.455  0.00  0.00    +0.000 C 
ATOM     22  C   UNL     1      22.389   9.569  23.292  0.00  0.00    +0.000 C 
ATOM     23  C   UNL     1      23.468  10.646  23.357  0.00  0.00    +0.000 C 
ATOM     24  C   UNL     1      24.344  10.496  24.574  0.00  0.00    +0.000 A 
ATOM     25  C   UNL     1      25.127  11.584  24.992  0.00  0.00    +0.000 A 
ATOM     26  C   UNL     1      25.994  11.476  26.090  0.00  0.00    +0.000 A 
ATOM     27  C   UNL     1      26.045  10.269  26.791  0.00  0.00    +0.000 A 
ATOM     28  C   UNL     1      25.281   9.174  26.386  0.00  0.00    +0.000 A 
ATOM     29  C   UNL     1      24.453   9.284  25.266  0.00  0.00    +0.000 A 
ENDBRANCH  18  26
ENDBRANCH  17  18
ENDBRANCH   1  17
TORSDOF 3
ENDMDL
